********************************************************************************
*                       GENERAL UTILITY LATTICE PROGRAM                        *
*                                 Julian Gale                                  *
*                      Nanochemistry Research Institute                        *
*             Curtin University of Technology, Western Australia               *
********************************************************************************
* Version = 3.4.2 * Last modified =   7th January 2008                         *
********************************************************************************
*  single       - perform a single point run                                   *
*  md           - perform molecular dynamics run                               *
*  conv         - constant volume calculation                                  *
*  molq         - molecule option activated, but with Coulomb terms retained   *
********************************************************************************

  Job Started  at 15:44.20  2nd December   2008                               

  Number of CPUs =     1


  Total number of configurations input =   1

********************************************************************************
*  Input for Configuration =   1                                               *
********************************************************************************

  Formula = D32C224                                                     

  Number of irreducible atoms/shells =     256


  Total number atoms/shells =     256

  Dimensionality = 3               :  Bulk   



  Supercell dimensions :  x =   4  y =   2  z =   1

  Cartesian lattice vectors (Angstroms) :

       25.991861    0.000000    0.000000
        0.000000   22.509612    0.000000
        0.000000    0.000000   80.000000

  Cell parameters (Angstroms/Degrees):

  a =      25.9919    alpha =  90.0000
  b =      22.5096    beta  =  90.0000
  c =      80.0000    gamma =  90.0000

  Initial cell volume =       46805.335898 Angs**3

  Temperature of configuration =  7.000     K 

  Pressure of configuration =         0.000 GPa 

  Fractional coordinates of asymmetric unit :

--------------------------------------------------------------------------------
   No.  Atomic       x           y          z         Charge      Occupancy
        Label      (Frac)      (Frac)     (Frac)        (e)         (Frac)  
--------------------------------------------------------------------------------
  Region 1 : 
--------------------------------------------------------------------------------
      1 D     c    0.179364 *  0.262066 *  0.034862 *    0.0000    1.000000    
      2 D     c    0.179364 *  0.762066 *  0.034862 *    0.0000    1.000000    
      3 D     c    0.429364 *  0.262066 *  0.034862 *    0.0000    1.000000    
      4 D     c    0.429364 *  0.762066 *  0.034862 *    0.0000    1.000000    
      5 D     c    0.679364 *  0.262066 *  0.034862 *    0.0000    1.000000    
      6 D     c    0.679364 *  0.762066 *  0.034862 *    0.0000    1.000000    
      7 D     c    0.929364 *  0.262066 *  0.034862 *    0.0000    1.000000    
      8 D     c    0.929364 *  0.762066 *  0.034862 *    0.0000    1.000000    
      9 D     c    0.071022 *  0.395165 *  0.035425 *    0.0000    1.000000    
     10 D     c    0.071022 *  0.895165 *  0.035425 *    0.0000    1.000000    
     11 D     c    0.321022 *  0.395165 *  0.035425 *    0.0000    1.000000    
     12 D     c    0.321022 *  0.895165 *  0.035425 *    0.0000    1.000000    
     13 D     c    0.571022 *  0.395165 *  0.035425 *    0.0000    1.000000    
     14 D     c    0.571022 *  0.895165 *  0.035425 *    0.0000    1.000000    
     15 D     c    0.821022 *  0.395165 *  0.035425 *    0.0000    1.000000    
     16 D     c    0.821022 *  0.895165 *  0.035425 *    0.0000    1.000000    
     17 D     c    0.010272 *  0.226836 *  0.035875 *    0.0000    1.000000    
     18 D     c    0.010272 *  0.726836 *  0.035875 *    0.0000    1.000000    
     19 D     c    0.260272 *  0.226836 *  0.035875 *    0.0000    1.000000    
     20 D     c    0.260272 *  0.726836 *  0.035875 *    0.0000    1.000000    
     21 D     c    0.510272 *  0.226836 *  0.035875 *    0.0000    1.000000    
     22 D     c    0.510272 *  0.726836 *  0.035875 *    0.0000    1.000000    
     23 D     c    0.760272 *  0.226836 *  0.035875 *    0.0000    1.000000    
     24 D     c    0.760272 *  0.726836 *  0.035875 *    0.0000    1.000000    
     25 D     c    0.128463 *  0.068948 *  0.034612 *    0.0000    1.000000    
     26 D     c    0.128463 *  0.568948 *  0.034612 *    0.0000    1.000000    
     27 D     c    0.378463 *  0.068948 *  0.034612 *    0.0000    1.000000    
     28 D     c    0.378463 *  0.568948 *  0.034612 *    0.0000    1.000000    
     29 D     c    0.628463 *  0.068948 *  0.034612 *    0.0000    1.000000    
     30 D     c    0.628463 *  0.568948 *  0.034612 *    0.0000    1.000000    
     31 D     c    0.878463 *  0.068948 *  0.034612 *    0.0000    1.000000    
     32 D     c    0.878463 *  0.568948 *  0.034612 *    0.0000    1.000000    
--------------------------------------------------------------------------------
  Region 2 :  Rigid translation fixed in xyz
--------------------------------------------------------------------------------
     33 C     c    0.000000    0.000000    0.000000      0.0000    1.000000    
     34 C     c    0.000000    0.500000    0.000000      0.0000    1.000000    
     35 C     c    0.250000    0.000000    0.000000      0.0000    1.000000    
     36 C     c    0.250000    0.500000    0.000000      0.0000    1.000000    
     37 C     c    0.500000    0.000000    0.000000      0.0000    1.000000    
     38 C     c    0.500000    0.500000    0.000000      0.0000    1.000000    
     39 C     c    0.750000    0.000000    0.000000      0.0000    1.000000    
     40 C     c    0.750000    0.500000    0.000000      0.0000    1.000000    
     41 C     c    0.071445    0.071436    0.000000      0.0000    1.000000    
     42 C     c    0.071445    0.571436    0.000000      0.0000    1.000000    
     43 C     c    0.321445    0.071436    0.000000      0.0000    1.000000    
     44 C     c    0.321445    0.571436    0.000000      0.0000    1.000000    
     45 C     c    0.571445    0.071436    0.000000      0.0000    1.000000    
     46 C     c    0.571445    0.571436    0.000000      0.0000    1.000000    
     47 C     c    0.821445    0.071436    0.000000      0.0000    1.000000    
     48 C     c    0.821445    0.571436    0.000000      0.0000    1.000000    
     49 C     c    0.232150    0.273794    0.000000      0.0000    1.000000    
     50 C     c    0.232150    0.773794    0.000000      0.0000    1.000000    
     51 C     c    0.482150    0.273794    0.000000      0.0000    1.000000    
     52 C     c    0.482150    0.773794    0.000000      0.0000    1.000000    
     53 C     c    0.732150    0.273794    0.000000      0.0000    1.000000    
     54 C     c    0.732150    0.773794    0.000000      0.0000    1.000000    
     55 C     c    0.982150    0.273794    0.000000      0.0000    1.000000    
     56 C     c    0.982150    0.773794    0.000000      0.0000    1.000000    
     57 C     c    0.000000    0.166684    0.000000      0.0000    1.000000    
     58 C     c    0.000000    0.666684    0.000000      0.0000    1.000000    
     59 C     c    0.250000    0.166684    0.000000      0.0000    1.000000    
     60 C     c    0.250000    0.666684    0.000000      0.0000    1.000000    
     61 C     c    0.500000    0.166684    0.000000      0.0000    1.000000    
     62 C     c    0.500000    0.666684    0.000000      0.0000    1.000000    
     63 C     c    0.750000    0.166684    0.000000      0.0000    1.000000    
     64 C     c    0.750000    0.666684    0.000000      0.0000    1.000000    
     65 C     c    0.196446    0.488103    0.000000      0.0000    1.000000    
     66 C     c    0.196446    0.988103    0.000000      0.0000    1.000000    
     67 C     c    0.446446    0.488103    0.000000      0.0000    1.000000    
     68 C     c    0.446446    0.988103    0.000000      0.0000    1.000000    
     69 C     c    0.696446    0.488103    0.000000      0.0000    1.000000    
     70 C     c    0.696446    0.988103    0.000000      0.0000    1.000000    
     71 C     c    0.946446    0.488103    0.000000      0.0000    1.000000    
     72 C     c    0.946446    0.988103    0.000000      0.0000    1.000000    
     73 C     c    0.214298    0.380948    0.000000      0.0000    1.000000    
     74 C     c    0.214298    0.880948    0.000000      0.0000    1.000000    
     75 C     c    0.464298    0.380948    0.000000      0.0000    1.000000    
     76 C     c    0.464298    0.880948    0.000000      0.0000    1.000000    
     77 C     c    0.714298    0.380948    0.000000      0.0000    1.000000    
     78 C     c    0.714298    0.880948    0.000000      0.0000    1.000000    
     79 C     c    0.964298    0.380948    0.000000      0.0000    1.000000    
     80 C     c    0.964298    0.880948    0.000000      0.0000    1.000000    
     81 C     c    0.017852    0.059530    0.000000      0.0000    1.000000    
     82 C     c    0.017852    0.559530    0.000000      0.0000    1.000000    
     83 C     c    0.267852    0.059530    0.000000      0.0000    1.000000    
     84 C     c    0.267852    0.559530    0.000000      0.0000    1.000000    
     85 C     c    0.517852    0.059530    0.000000      0.0000    1.000000    
     86 C     c    0.517852    0.559530    0.000000      0.0000    1.000000    
     87 C     c    0.767852    0.059530    0.000000      0.0000    1.000000    
     88 C     c    0.767852    0.559530    0.000000      0.0000    1.000000    
     89 C     c    0.053555    0.178590    0.000000      0.0000    1.000000    
     90 C     c    0.053555    0.678590    0.000000      0.0000    1.000000    
     91 C     c    0.303555    0.178590    0.000000      0.0000    1.000000    
     92 C     c    0.303555    0.678590    0.000000      0.0000    1.000000    
     93 C     c    0.553555    0.178590    0.000000      0.0000    1.000000    
     94 C     c    0.553555    0.678590    0.000000      0.0000    1.000000    
     95 C     c    0.803555    0.178590    0.000000      0.0000    1.000000    
     96 C     c    0.803555    0.678590    0.000000      0.0000    1.000000    
     97 C     c    0.142852    0.309512    0.000000      0.0000    1.000000    
     98 C     c    0.142852    0.809512    0.000000      0.0000    1.000000    
     99 C     c    0.392852    0.309512    0.000000      0.0000    1.000000    
    100 C     c    0.392852    0.809512    0.000000      0.0000    1.000000    
    101 C     c    0.642852    0.309512    0.000000      0.0000    1.000000    
    102 C     c    0.642852    0.809512    0.000000      0.0000    1.000000    
    103 C     c    0.892852    0.309512    0.000000      0.0000    1.000000    
    104 C     c    0.892852    0.809512    0.000000      0.0000    1.000000    
    105 C     c    0.035703    0.285700    0.000000      0.0000    1.000000    
    106 C     c    0.035703    0.785700    0.000000      0.0000    1.000000    
    107 C     c    0.285703    0.285700    0.000000      0.0000    1.000000    
    108 C     c    0.285703    0.785700    0.000000      0.0000    1.000000    
    109 C     c    0.535703    0.285700    0.000000      0.0000    1.000000    
    110 C     c    0.535703    0.785700    0.000000      0.0000    1.000000    
    111 C     c    0.785703    0.285700    0.000000      0.0000    1.000000    
    112 C     c    0.785703    0.785700    0.000000      0.0000    1.000000    
    113 C     c    0.017852    0.392854    0.000000      0.0000    1.000000    
    114 C     c    0.017852    0.892854    0.000000      0.0000    1.000000    
    115 C     c    0.267852    0.392854    0.000000      0.0000    1.000000    
    116 C     c    0.267852    0.892854    0.000000      0.0000    1.000000    
    117 C     c    0.517852    0.392854    0.000000      0.0000    1.000000    
    118 C     c    0.517852    0.892854    0.000000      0.0000    1.000000    
    119 C     c    0.767852    0.392854    0.000000      0.0000    1.000000    
    120 C     c    0.767852    0.892854    0.000000      0.0000    1.000000    
    121 C     c    0.107149    0.023812    0.000000      0.0000    1.000000    
    122 C     c    0.107149    0.523812    0.000000      0.0000    1.000000    
    123 C     c    0.357149    0.023812    0.000000      0.0000    1.000000    
    124 C     c    0.357149    0.523812    0.000000      0.0000    1.000000    
    125 C     c    0.607149    0.023812    0.000000      0.0000    1.000000    
    126 C     c    0.607149    0.523812    0.000000      0.0000    1.000000    
    127 C     c    0.857149    0.023812    0.000000      0.0000    1.000000    
    128 C     c    0.857149    0.523812    0.000000      0.0000    1.000000    
    129 C     c    0.160704    0.035718    0.000000      0.0000    1.000000    
    130 C     c    0.160704    0.535718    0.000000      0.0000    1.000000    
    131 C     c    0.410704    0.035718    0.000000      0.0000    1.000000    
    132 C     c    0.410704    0.535718    0.000000      0.0000    1.000000    
    133 C     c    0.660704    0.035718    0.000000      0.0000    1.000000    
    134 C     c    0.660704    0.535718    0.000000      0.0000    1.000000    
    135 C     c    0.910704    0.035718    0.000000      0.0000    1.000000    
    136 C     c    0.910704    0.535718    0.000000      0.0000    1.000000    
    137 C     c    0.089297    0.130966    0.000000      0.0000    1.000000    
    138 C     c    0.089297    0.630966    0.000000      0.0000    1.000000    
    139 C     c    0.339297    0.130966    0.000000      0.0000    1.000000    
    140 C     c    0.339297    0.630966    0.000000      0.0000    1.000000    
    141 C     c    0.589297    0.130966    0.000000      0.0000    1.000000    
    142 C     c    0.589297    0.630966    0.000000      0.0000    1.000000    
    143 C     c    0.839297    0.130966    0.000000      0.0000    1.000000    
    144 C     c    0.839297    0.630966    0.000000      0.0000    1.000000    
    145 C     c    0.142852    0.142872    0.000000      0.0000    1.000000    
    146 C     c    0.142852    0.642872    0.000000      0.0000    1.000000    
    147 C     c    0.392852    0.142872    0.000000      0.0000    1.000000    
    148 C     c    0.392852    0.642872    0.000000      0.0000    1.000000    
    149 C     c    0.642852    0.142872    0.000000      0.0000    1.000000    
    150 C     c    0.642852    0.642872    0.000000      0.0000    1.000000    
    151 C     c    0.892852    0.142872    0.000000      0.0000    1.000000    
    152 C     c    0.892852    0.642872    0.000000      0.0000    1.000000    
    153 C     c    0.071445    0.238076    0.000000      0.0000    1.000000    
    154 C     c    0.071445    0.738076    0.000000      0.0000    1.000000    
    155 C     c    0.321445    0.238076    0.000000      0.0000    1.000000    
    156 C     c    0.321445    0.738076    0.000000      0.0000    1.000000    
    157 C     c    0.571445    0.238076    0.000000      0.0000    1.000000    
    158 C     c    0.571445    0.738076    0.000000      0.0000    1.000000    
    159 C     c    0.821445    0.238076    0.000000      0.0000    1.000000    
    160 C     c    0.821445    0.738076    0.000000      0.0000    1.000000    
    161 C     c    0.125001    0.249982    0.000000      0.0000    1.000000    
    162 C     c    0.125001    0.749982    0.000000      0.0000    1.000000    
    163 C     c    0.375001    0.249982    0.000000      0.0000    1.000000    
    164 C     c    0.375001    0.749982    0.000000      0.0000    1.000000    
    165 C     c    0.625001    0.249982    0.000000      0.0000    1.000000    
    166 C     c    0.625001    0.749982    0.000000      0.0000    1.000000    
    167 C     c    0.875001    0.249982    0.000000      0.0000    1.000000    
    168 C     c    0.875001    0.749982    0.000000      0.0000    1.000000    
    169 C     c    0.053555    0.345230    0.000000      0.0000    1.000000    
    170 C     c    0.053555    0.845230    0.000000      0.0000    1.000000    
    171 C     c    0.303555    0.345230    0.000000      0.0000    1.000000    
    172 C     c    0.303555    0.845230    0.000000      0.0000    1.000000    
    173 C     c    0.553555    0.345230    0.000000      0.0000    1.000000    
    174 C     c    0.553555    0.845230    0.000000      0.0000    1.000000    
    175 C     c    0.803555    0.345230    0.000000      0.0000    1.000000    
    176 C     c    0.803555    0.845230    0.000000      0.0000    1.000000    
    177 C     c    0.107149    0.357136    0.000000      0.0000    1.000000    
    178 C     c    0.107149    0.857136    0.000000      0.0000    1.000000    
    179 C     c    0.357149    0.357136    0.000000      0.0000    1.000000    
    180 C     c    0.357149    0.857136    0.000000      0.0000    1.000000    
    181 C     c    0.607149    0.357136    0.000000      0.0000    1.000000    
    182 C     c    0.607149    0.857136    0.000000      0.0000    1.000000    
    183 C     c    0.857149    0.357136    0.000000      0.0000    1.000000    
    184 C     c    0.857149    0.857136    0.000000      0.0000    1.000000    
    185 C     c    0.035703    0.452385    0.000000      0.0000    1.000000    
    186 C     c    0.035703    0.952385    0.000000      0.0000    1.000000    
    187 C     c    0.285703    0.452385    0.000000      0.0000    1.000000    
    188 C     c    0.285703    0.952385    0.000000      0.0000    1.000000    
    189 C     c    0.535703    0.452385    0.000000      0.0000    1.000000    
    190 C     c    0.535703    0.952385    0.000000      0.0000    1.000000    
    191 C     c    0.785703    0.452385    0.000000      0.0000    1.000000    
    192 C     c    0.785703    0.952385    0.000000      0.0000    1.000000    
    193 C     c    0.089297    0.464291    0.000000      0.0000    1.000000    
    194 C     c    0.089297    0.964291    0.000000      0.0000    1.000000    
    195 C     c    0.339297    0.464291    0.000000      0.0000    1.000000    
    196 C     c    0.339297    0.964291    0.000000      0.0000    1.000000    
    197 C     c    0.589297    0.464291    0.000000      0.0000    1.000000    
    198 C     c    0.589297    0.964291    0.000000      0.0000    1.000000    
    199 C     c    0.839297    0.464291    0.000000      0.0000    1.000000    
    200 C     c    0.839297    0.964291    0.000000      0.0000    1.000000    
    201 C     c    0.178556    0.095248    0.000000      0.0000    1.000000    
    202 C     c    0.178556    0.595248    0.000000      0.0000    1.000000    
    203 C     c    0.428556    0.095248    0.000000      0.0000    1.000000    
    204 C     c    0.428556    0.595248    0.000000      0.0000    1.000000    
    205 C     c    0.678556    0.095248    0.000000      0.0000    1.000000    
    206 C     c    0.678556    0.595248    0.000000      0.0000    1.000000    
    207 C     c    0.928556    0.095248    0.000000      0.0000    1.000000    
    208 C     c    0.928556    0.595248    0.000000      0.0000    1.000000    
    209 C     c    0.232150    0.107154    0.000000      0.0000    1.000000    
    210 C     c    0.232150    0.607154    0.000000      0.0000    1.000000    
    211 C     c    0.482150    0.107154    0.000000      0.0000    1.000000    
    212 C     c    0.482150    0.607154    0.000000      0.0000    1.000000    
    213 C     c    0.732150    0.107154    0.000000      0.0000    1.000000    
    214 C     c    0.732150    0.607154    0.000000      0.0000    1.000000    
    215 C     c    0.982150    0.107154    0.000000      0.0000    1.000000    
    216 C     c    0.982150    0.607154    0.000000      0.0000    1.000000    
    217 C     c    0.160704    0.202402    0.000000      0.0000    1.000000    
    218 C     c    0.160704    0.702402    0.000000      0.0000    1.000000    
    219 C     c    0.410704    0.202402    0.000000      0.0000    1.000000    
    220 C     c    0.410704    0.702402    0.000000      0.0000    1.000000    
    221 C     c    0.660704    0.202402    0.000000      0.0000    1.000000    
    222 C     c    0.660704    0.702402    0.000000      0.0000    1.000000    
    223 C     c    0.910704    0.202402    0.000000      0.0000    1.000000    
    224 C     c    0.910704    0.702402    0.000000      0.0000    1.000000    
    225 C     c    0.214298    0.214264    0.000000      0.0000    1.000000    
    226 C     c    0.214298    0.714264    0.000000      0.0000    1.000000    
    227 C     c    0.464298    0.214264    0.000000      0.0000    1.000000    
    228 C     c    0.464298    0.714264    0.000000      0.0000    1.000000    
    229 C     c    0.714298    0.214264    0.000000      0.0000    1.000000    
    230 C     c    0.714298    0.714264    0.000000      0.0000    1.000000    
    231 C     c    0.964298    0.214264    0.000000      0.0000    1.000000    
    232 C     c    0.964298    0.714264    0.000000      0.0000    1.000000    
    233 C     c    0.196446    0.321418    0.000000      0.0000    1.000000    
    234 C     c    0.196446    0.821418    0.000000      0.0000    1.000000    
    235 C     c    0.446446    0.321418    0.000000      0.0000    1.000000    
    236 C     c    0.446446    0.821418    0.000000      0.0000    1.000000    
    237 C     c    0.696446    0.321418    0.000000      0.0000    1.000000    
    238 C     c    0.696446    0.821418    0.000000      0.0000    1.000000    
    239 C     c    0.946446    0.321418    0.000000      0.0000    1.000000    
    240 C     c    0.946446    0.821418    0.000000      0.0000    1.000000    
    241 C     c    0.125001    0.416666    0.000000      0.0000    1.000000    
    242 C     c    0.125001    0.916666    0.000000      0.0000    1.000000    
    243 C     c    0.375001    0.416666    0.000000      0.0000    1.000000    
    244 C     c    0.375001    0.916666    0.000000      0.0000    1.000000    
    245 C     c    0.625001    0.416666    0.000000      0.0000    1.000000    
    246 C     c    0.625001    0.916666    0.000000      0.0000    1.000000    
    247 C     c    0.875001    0.416666    0.000000      0.0000    1.000000    
    248 C     c    0.875001    0.916666    0.000000      0.0000    1.000000    
    249 C     c    0.178556    0.428572    0.000000      0.0000    1.000000    
    250 C     c    0.178556    0.928572    0.000000      0.0000    1.000000    
    251 C     c    0.428556    0.428572    0.000000      0.0000    1.000000    
    252 C     c    0.428556    0.928572    0.000000      0.0000    1.000000    
    253 C     c    0.678556    0.428572    0.000000      0.0000    1.000000    
    254 C     c    0.678556    0.928572    0.000000      0.0000    1.000000    
    255 C     c    0.928556    0.428572    0.000000      0.0000    1.000000    
    256 C     c    0.928556    0.928572    0.000000      0.0000    1.000000    
--------------------------------------------------------------------------------



  Molecule list generated from bond lengths :

  Total number of molecules =     1

--------------------------------------------------------------------------------
Molecule No./:  Atoms
Periodicity  :  
--------------------------------------------------------------------------------
     1  2 xy : C    c   33 C    c   34 C    c   35 C    c   36 C    c   37
             : C    c   38 C    c   39 C    c   40 C    c   41 C    c   42
             : C    c   43 C    c   44 C    c   45 C    c   46 C    c   47
             : C    c   48 C    c   49 C    c   50 C    c   51 C    c   52
             : C    c   53 C    c   54 C    c   55 C    c   56 C    c   57
             : C    c   58 C    c   59 C    c   60 C    c   61 C    c   62
             : C    c   63 C    c   64 C    c   65 C    c   66 C    c   67
             : C    c   68 C    c   69 C    c   70 C    c   71 C    c   72
             : C    c   73 C    c   74 C    c   75 C    c   76 C    c   77
             : C    c   78 C    c   79 C    c   80 C    c   81 C    c   82
             : C    c   83 C    c   84 C    c   85 C    c   86 C    c   87
             : C    c   88 C    c   89 C    c   90 C    c   91 C    c   92
             : C    c   93 C    c   94 C    c   95 C    c   96 C    c   97
             : C    c   98 C    c   99 C    c  100 C    c  101 C    c  102
             : C    c  103 C    c  104 C    c  105 C    c  106 C    c  107
             : C    c  108 C    c  109 C    c  110 C    c  111 C    c  112
             : C    c  113 C    c  114 C    c  115 C    c  116 C    c  117
             : C    c  118 C    c  119 C    c  120 C    c  121 C    c  122
             : C    c  123 C    c  124 C    c  125 C    c  126 C    c  127
             : C    c  128 C    c  129 C    c  130 C    c  131 C    c  132
             : C    c  133 C    c  134 C    c  135 C    c  136 C    c  137
             : C    c  138 C    c  139 C    c  140 C    c  141 C    c  142
             : C    c  143 C    c  144 C    c  145 C    c  146 C    c  147
             : C    c  148 C    c  149 C    c  150 C    c  151 C    c  152
             : C    c  153 C    c  154 C    c  155 C    c  156 C    c  157
             : C    c  158 C    c  159 C    c  160 C    c  161 C    c  162
             : C    c  163 C    c  164 C    c  165 C    c  166 C    c  167
             : C    c  168 C    c  169 C    c  170 C    c  171 C    c  172
             : C    c  173 C    c  174 C    c  175 C    c  176 C    c  177
             : C    c  178 C    c  179 C    c  180 C    c  181 C    c  182
             : C    c  183 C    c  184 C    c  185 C    c  186 C    c  187
             : C    c  188 C    c  189 C    c  190 C    c  191 C    c  192
             : C    c  193 C    c  194 C    c  195 C    c  196 C    c  197
             : C    c  198 C    c  199 C    c  200 C    c  201 C    c  202
             : C    c  203 C    c  204 C    c  205 C    c  206 C    c  207
             : C    c  208 C    c  209 C    c  210 C    c  211 C    c  212
             : C    c  213 C    c  214 C    c  215 C    c  216 C    c  217
             : C    c  218 C    c  219 C    c  220 C    c  221 C    c  222
             : C    c  223 C    c  224 C    c  225 C    c  226 C    c  227
             : C    c  228 C    c  229 C    c  230 C    c  231 C    c  232
             : C    c  233 C    c  234 C    c  235 C    c  236 C    c  237
             : C    c  238 C    c  239 C    c  240 C    c  241 C    c  242
             : C    c  243 C    c  244 C    c  245 C    c  246 C    c  247
             : C    c  248 C    c  249 C    c  250 C    c  251 C    c  252
             : C    c  253 C    c  254 C    c  255 C    c  256
--------------------------------------------------------------------------------


********************************************************************************
*  General input information                                                   *
********************************************************************************

  Species output for all configurations : 

--------------------------------------------------------------------------------
  Species    Type    Atomic    Atomic    Charge       Radii (Angs)     Library
                     Number     Mass       (e)     Cova   Ionic  VDW   Symbol
--------------------------------------------------------------------------------
    D        Core      106       2.01     0.0000   0.370  0.000  1.170          
    C        Core        6      12.01     0.0000   0.770  0.000  1.530          
--------------------------------------------------------------------------------


  Lattice summation method               =    Ewald
  Accuracy factor for lattice sums       =    8.000


  Time limit = Infinity

  Maximum range for interatomic potentials =        12.000000 Angstroms

  Taper potentials to zero over   1.0000 Angstroms using polynomial

  Intramolecular potentials :

--------------------------------------------------------------------------------
Atom  Types   Potential         A         B         C         D     Cutoffs(Ang)
  1     2                                                            Min    Max 
--------------------------------------------------------------------------------
C    c C    c Morse          5.77      1.65     1.41     0.00       0.000  2.000
--------------------------------------------------------------------------------

  Intermolecular potentials :

--------------------------------------------------------------------------------
Atom  Types   Potential         A         B         C         D     Cutoffs(Ang)
  1     2                                                            Min    Max 
--------------------------------------------------------------------------------
C    c C    c Lennard 12  6 0.276E+05  18.2     0.00      0.00      0.000 12.000
C    c D    c Buckingham    0.106E+04 0.282     17.4     0.00       0.000 12.000
D    c D    c Lennard 12  6 0.287E+04  6.18     0.00      0.00      0.000 12.000
--------------------------------------------------------------------------------

  Intramolecular Three-body potentials :

  Cosine Harmonic form:

--------------------------------------------------------------------------------
Atom    Atom    Atom           Force Constants            Theta     Cutoffs  
  1       2       3               (eV)                    (deg)  1-2  1-3  2-3
--------------------------------------------------------------------------------
C     c C     c C     c                  25.226000       120.000 0.00 0.00 0.00
                                                                 1.60 1.60 3.00
--------------------------------------------------------------------------------

  Intramolecular Four-body potentials :

  Standard form:

--------------------------------------------------------------------------------
         Atom Types             Force cst Sign Phase Phi0         Cutoffs
   1       2       3       4       (eV)                     1-2  2-3  3-4  4-1
--------------------------------------------------------------------------------
C     c C     c C     c C     c  .46135     -   2     0.00  1.60 1.60 1.60 0.00
--------------------------------------------------------------------------------

********************************************************************************
*  Output for configuration   1                                                *
********************************************************************************


  Components of energy : 

--------------------------------------------------------------------------------
  Interatomic potentials     =       -1938.70960247 eV
  Three-body potentials      =           0.00101082 eV
  Four-body potentials       =           0.00000000 eV
  Out of plane potentials    =           0.00000000 eV
  Monopole - monopole (real) =           0.00000000 eV
  Monopole - monopole (recip)=           0.00000000 eV
  Monopole - monopole (total)=           0.00000000 eV
--------------------------------------------------------------------------------
  Total lattice energy       =       -1938.70859165 eV
--------------------------------------------------------------------------------
  Total lattice energy       =         -187055.7432 kJ/(mole unit cells)
--------------------------------------------------------------------------------

  XYZ File open for Movie as surf.xyz                                


  Equations of motion will be integrated using the leapfrog Verlet algorithm.

********************************************************************************
*  Molecular Dynamics                                                          *
********************************************************************************

  Canonical ensemble (NVT) to be used

  Friction for temperature bath =           0.050000

  No. of mobile ions        =                 32

  No. of degrees of freedom =                 93

  Time step                 =           0.001000 ps
  Equilibration time        =           0.000000 ps
  Production time           =           5.000000 ps
  Scaling time              =           0.000000 ps
  Scaling frequency         =           0.001000 ps
  Sampling frequency        =           0.010000 ps
  Write frequency           =           0.010000 ps
  Force start time          =           0.000000 ps


  Molecular dynamics production :

  ** Time :            0.01000 ps :
     Properties:                   Instantaneous       Averaged
       Kinetic energy    (eV) =       0.017208          0.017208
       Potential energy  (eV) =   -1939.203666      -1939.203666
       Total energy      (eV) =   -1939.186459      -1939.186459
       Temperature       (K)  =       4.294407          4.294407
       Pressure         (GPa) =      -0.098163         -0.098163
  ** Time :            0.02000 ps :
     Properties:                   Instantaneous       Averaged
       Kinetic energy    (eV) =       0.017068          0.017138
       Potential energy  (eV) =   -1939.374707      -1939.289187
       Total energy      (eV) =   -1939.357639      -1939.272049
       Temperature       (K)  =       4.259434          4.276920
       Pressure         (GPa) =      -0.101068         -0.099616
  ** Time :            0.03000 ps :
     Properties:                   Instantaneous       Averaged
       Kinetic energy    (eV) =       0.021120          0.018465
       Potential energy  (eV) =   -1939.514238      -1939.364204
       Total energy      (eV) =   -1939.493118      -1939.345739
       Temperature       (K)  =       5.270650          4.608164
       Pressure         (GPa) =      -0.103452         -0.100895
  ** Time :            0.04000 ps :
     Properties:                   Instantaneous       Averaged
       Kinetic energy    (eV) =       0.024291          0.019922
       Potential energy  (eV) =   -1939.627356      -1939.429992
       Total energy      (eV) =   -1939.603065      -1939.410070
       Temperature       (K)  =       6.062018          4.971627
       Pressure         (GPa) =      -0.105476         -0.102040
  ** Time :            0.05000 ps :
     Properties:                   Instantaneous       Averaged
       Kinetic energy    (eV) =       0.025618          0.021061
       Potential energy  (eV) =   -1939.711602      -1939.486314
       Total energy      (eV) =   -1939.685984      -1939.465253
       Temperature       (K)  =       6.393090          5.255920
       Pressure         (GPa) =      -0.107195         -0.103071
  ** Time :            0.06000 ps :
     Properties:                   Instantaneous       Averaged
       Kinetic energy    (eV) =       0.026432          0.021956
       Potential energy  (eV) =   -1939.774057      -1939.534271
       Total energy      (eV) =   -1939.747624      -1939.512315
       Temperature       (K)  =       6.596473          5.479345
       Pressure         (GPa) =      -0.108687         -0.104007
  ** Time :            0.07000 ps :
     Properties:                   Instantaneous       Averaged
       Kinetic energy    (eV) =       0.026812          0.022650
       Potential energy  (eV) =   -1939.821341      -1939.575281
       Total energy      (eV) =   -1939.794529      -1939.552631
       Temperature       (K)  =       6.691193          5.652467
       Pressure         (GPa) =      -0.110016         -0.104865
  ** Time :            0.08000 ps :
     Properties:                   Instantaneous       Averaged
       Kinetic energy    (eV) =       0.027064          0.023202
       Potential energy  (eV) =   -1939.856774      -1939.610468
       Total energy      (eV) =   -1939.829710      -1939.587266
       Temperature       (K)  =       6.754041          5.790163
       Pressure         (GPa) =      -0.111211         -0.105659
  ** Time :            0.09000 ps :
     Properties:                   Instantaneous       Averaged
       Kinetic energy    (eV) =       0.027212          0.023647
       Potential energy  (eV) =   -1939.882652      -1939.640710
       Total energy      (eV) =   -1939.855441      -1939.617063
       Temperature       (K)  =       6.790902          5.901357
       Pressure         (GPa) =      -0.112288         -0.106395
  ** Time :            0.10000 ps :
     Properties:                   Instantaneous       Averaged
       Kinetic energy    (eV) =       0.027344          0.024017
       Potential energy  (eV) =   -1939.900430      -1939.666682
       Total energy      (eV) =   -1939.873086      -1939.642665
       Temperature       (K)  =       6.824048          5.993626
       Pressure         (GPa) =      -0.113255         -0.107081
  ** Time :            0.11000 ps :
     Properties:                   Instantaneous       Averaged
       Kinetic energy    (eV) =       0.027451          0.024329
       Potential energy  (eV) =   -1939.911334      -1939.688923
       Total energy      (eV) =   -1939.883884      -1939.664594
       Temperature       (K)  =       6.850553          6.071528
       Pressure         (GPa) =      -0.114117         -0.107721
  ** Time :            0.12000 ps :
     Properties:                   Instantaneous       Averaged
       Kinetic energy    (eV) =       0.027571          0.024599
       Potential energy  (eV) =   -1939.916424      -1939.707882
       Total energy      (eV) =   -1939.888854      -1939.683283
       Temperature       (K)  =       6.880562          6.138948
       Pressure         (GPa) =      -0.114875         -0.108317
  ** Time :            0.13000 ps :
     Properties:                   Instantaneous       Averaged
       Kinetic energy    (eV) =       0.027696          0.024837
       Potential energy  (eV) =   -1939.916831      -1939.723955
       Total energy      (eV) =   -1939.889135      -1939.699117
       Temperature       (K)  =       6.911806          6.198398
       Pressure         (GPa) =      -0.115528         -0.108872
  ** Time :            0.14000 ps :
     Properties:                   Instantaneous       Averaged
       Kinetic energy    (eV) =       0.027862          0.025053
       Potential energy  (eV) =   -1939.913821      -1939.737517
       Total energy      (eV) =   -1939.885960      -1939.712463
       Temperature       (K)  =       6.953111          6.252306
       Pressure         (GPa) =      -0.116070         -0.109386
  ** Time :            0.15000 ps :
     Properties:                   Instantaneous       Averaged
       Kinetic energy    (eV) =       0.028055          0.025253
       Potential energy  (eV) =   -1939.908984      -1939.748948
       Total energy      (eV) =   -1939.880929      -1939.723694
       Temperature       (K)  =       7.001359          6.302243
       Pressure         (GPa) =      -0.116492         -0.109860
  ** Time :            0.16000 ps :
     Properties:                   Instantaneous       Averaged
       Kinetic energy    (eV) =       0.028268          0.025442
       Potential energy  (eV) =   -1939.904225      -1939.758653
       Total energy      (eV) =   -1939.875957      -1939.733211
       Temperature       (K)  =       7.054615          6.349266
       Pressure         (GPa) =      -0.116777         -0.110292
  ** Time :            0.17000 ps :
     Properties:                   Instantaneous       Averaged
       Kinetic energy    (eV) =       0.028393          0.025615
       Potential energy  (eV) =   -1939.901480      -1939.767054
       Total energy      (eV) =   -1939.873087      -1939.741439
       Temperature       (K)  =       7.085646          6.392583
       Pressure         (GPa) =      -0.116908         -0.110681
  ** Time :            0.18000 ps :
     Properties:                   Instantaneous       Averaged
       Kinetic energy    (eV) =       0.028364          0.025768
       Potential energy  (eV) =   -1939.901875      -1939.774544
       Total energy      (eV) =   -1939.873511      -1939.748776
       Temperature       (K)  =       7.078582          6.430694
       Pressure         (GPa) =      -0.116875         -0.111025
  ** Time :            0.19000 ps :
     Properties:                   Instantaneous       Averaged
       Kinetic energy    (eV) =       0.028186          0.025895
       Potential energy  (eV) =   -1939.905074      -1939.781414
       Total energy      (eV) =   -1939.876888      -1939.755519
       Temperature       (K)  =       7.033971          6.462445
       Pressure         (GPa) =      -0.116684         -0.111323
  ** Time :            0.20000 ps :
     Properties:                   Instantaneous       Averaged
       Kinetic energy    (eV) =       0.027989          0.026000
       Potential energy  (eV) =   -1939.909514      -1939.787819
       Total energy      (eV) =   -1939.881525      -1939.761819
       Temperature       (K)  =       6.984903          6.488568
       Pressure         (GPa) =      -0.116354         -0.111575
  ** Time :            0.21000 ps :
     Properties:                   Instantaneous       Averaged
       Kinetic energy    (eV) =       0.027818          0.026087
       Potential energy  (eV) =   -1939.913353      -1939.793797
       Total energy      (eV) =   -1939.885535      -1939.767710
       Temperature       (K)  =       6.942279          6.510174
       Pressure         (GPa) =      -0.115908         -0.111781
  ** Time :            0.22000 ps :
     Properties:                   Instantaneous       Averaged
       Kinetic energy    (eV) =       0.027720          0.026161
       Potential energy  (eV) =   -1939.915035      -1939.799308
       Total energy      (eV) =   -1939.887315      -1939.773147
       Temperature       (K)  =       6.917810          6.528702
       Pressure         (GPa) =      -0.115369         -0.111944
  ** Time :            0.23000 ps :
     Properties:                   Instantaneous       Averaged
       Kinetic energy    (eV) =       0.027681          0.026227
       Potential energy  (eV) =   -1939.913597      -1939.804277
       Total energy      (eV) =   -1939.885916      -1939.778050
       Temperature       (K)  =       6.908078          6.545197
       Pressure         (GPa) =      -0.114762         -0.112066
  ** Time :            0.24000 ps :
     Properties:                   Instantaneous       Averaged
       Kinetic energy    (eV) =       0.027758          0.026291
       Potential energy  (eV) =   -1939.908767      -1939.808631
       Total energy      (eV) =   -1939.881009      -1939.782340
       Temperature       (K)  =       6.927210          6.561114
       Pressure         (GPa) =      -0.114122         -0.112152
  ** Time :            0.25000 ps :
     Properties:                   Instantaneous       Averaged
       Kinetic energy    (eV) =       0.027989          0.026359
       Potential energy  (eV) =   -1939.901352      -1939.812340
       Total energy      (eV) =   -1939.873363      -1939.785981
       Temperature       (K)  =       6.984888          6.578065
       Pressure         (GPa) =      -0.113510         -0.112206
  ** Time :            0.26000 ps :
     Properties:                   Instantaneous       Averaged
       Kinetic energy    (eV) =       0.028403          0.026437
       Potential energy  (eV) =   -1939.893682      -1939.815468
       Total energy      (eV) =   -1939.865279      -1939.789031
       Temperature       (K)  =       7.088319          6.597690
       Pressure         (GPa) =      -0.113030         -0.112238
  ** Time :            0.27000 ps :
     Properties:                   Instantaneous       Averaged
       Kinetic energy    (eV) =       0.028678          0.026520
       Potential energy  (eV) =   -1939.889341      -1939.818204
       Total energy      (eV) =   -1939.860663      -1939.791684
       Temperature       (K)  =       7.156966          6.618404
       Pressure         (GPa) =      -0.112822         -0.112260
  ** Time :            0.28000 ps :
     Properties:                   Instantaneous       Averaged
       Kinetic energy    (eV) =       0.028480          0.026590
       Potential energy  (eV) =   -1939.890417      -1939.820783
       Total energy      (eV) =   -1939.861937      -1939.794193
       Temperature       (K)  =       7.107345          6.635866
       Pressure         (GPa) =      -0.112967         -0.112285
  ** Time :            0.29000 ps :
     Properties:                   Instantaneous       Averaged
       Kinetic energy    (eV) =       0.028076          0.026642
       Potential energy  (eV) =   -1939.895197      -1939.823349
       Total energy      (eV) =   -1939.867120      -1939.796708
       Temperature       (K)  =       7.006729          6.648655
       Pressure         (GPa) =      -0.113408         -0.112324
  ** Time :            0.30000 ps :
     Properties:                   Instantaneous       Averaged
       Kinetic energy    (eV) =       0.027841          0.026682
       Potential energy  (eV) =   -1939.900419      -1939.825918
       Total energy      (eV) =   -1939.872578      -1939.799237
       Temperature       (K)  =       6.948050          6.658635
       Pressure         (GPa) =      -0.114012         -0.112380
  ** Time :            0.31000 ps :
     Properties:                   Instantaneous       Averaged
       Kinetic energy    (eV) =       0.027758          0.026716
       Potential energy  (eV) =   -1939.903901      -1939.828434
       Total energy      (eV) =   -1939.876143      -1939.801717
       Temperature       (K)  =       6.927359          6.667303
       Pressure         (GPa) =      -0.114666         -0.112454
  ** Time :            0.32000 ps :
     Properties:                   Instantaneous       Averaged
       Kinetic energy    (eV) =       0.027800          0.026750
       Potential energy  (eV) =   -1939.904814      -1939.830821
       Total energy      (eV) =   -1939.877014      -1939.804070
       Temperature       (K)  =       6.937762          6.675755
       Pressure         (GPa) =      -0.115300         -0.112543
  ** Time :            0.33000 ps :
     Properties:                   Instantaneous       Averaged
       Kinetic energy    (eV) =       0.027894          0.026785
       Potential energy  (eV) =   -1939.903404      -1939.833020
       Total energy      (eV) =   -1939.875510      -1939.806235
       Temperature       (K)  =       6.961331          6.684409
       Pressure         (GPa) =      -0.115871         -0.112644
  ** Time :            0.34000 ps :
     Properties:                   Instantaneous       Averaged
       Kinetic energy    (eV) =       0.028058          0.026822
       Potential energy  (eV) =   -1939.900607      -1939.835008
       Total energy      (eV) =   -1939.872549      -1939.808186
       Temperature       (K)  =       7.002046          6.693751
       Pressure         (GPa) =      -0.116346         -0.112752
  ** Time :            0.35000 ps :
     Properties:                   Instantaneous       Averaged
       Kinetic energy    (eV) =       0.028225          0.026862
       Potential energy  (eV) =   -1939.897906      -1939.836805
       Total energy      (eV) =   -1939.869682      -1939.809943
       Temperature       (K)  =       7.043734          6.703751
       Pressure         (GPa) =      -0.116698         -0.112865
  ** Time :            0.36000 ps :
     Properties:                   Instantaneous       Averaged
       Kinetic energy    (eV) =       0.028359          0.026904
       Potential energy  (eV) =   -1939.896911      -1939.838475
       Total energy      (eV) =   -1939.868552      -1939.811571
       Temperature       (K)  =       7.077254          6.714126
       Pressure         (GPa) =      -0.116903         -0.112977
  ** Time :            0.37000 ps :
     Properties:                   Instantaneous       Averaged
       Kinetic energy    (eV) =       0.028343          0.026943
       Potential energy  (eV) =   -1939.898728      -1939.840103
       Total energy      (eV) =   -1939.870385      -1939.813160
       Temperature       (K)  =       7.073341          6.723834
       Pressure         (GPa) =      -0.116948         -0.113085
  ** Time :            0.38000 ps :
     Properties:                   Instantaneous       Averaged
       Kinetic energy    (eV) =       0.028218          0.026976
       Potential energy  (eV) =   -1939.903233      -1939.841764
       Total energy      (eV) =   -1939.875015      -1939.814788
       Temperature       (K)  =       7.042098          6.732210
       Pressure         (GPa) =      -0.116835         -0.113183
  ** Time :            0.39000 ps :
     Properties:                   Instantaneous       Averaged
       Kinetic energy    (eV) =       0.028029          0.027003
       Potential energy  (eV) =   -1939.909216      -1939.843494
       Total energy      (eV) =   -1939.881188      -1939.816491
       Temperature       (K)  =       6.994775          6.738942
       Pressure         (GPa) =      -0.116583         -0.113271
  ** Time :            0.40000 ps :
     Properties:                   Instantaneous       Averaged
       Kinetic energy    (eV) =       0.027883          0.027025
       Potential energy  (eV) =   -1939.915014      -1939.845282
       Total energy      (eV) =   -1939.887131      -1939.818257
       Temperature       (K)  =       6.958424          6.744429
       Pressure         (GPa) =      -0.116215         -0.113344
  ** Time :            0.41000 ps :
     Properties:                   Instantaneous       Averaged
       Kinetic energy    (eV) =       0.027774          0.027044
       Potential energy  (eV) =   -1939.919210      -1939.847085
       Total energy      (eV) =   -1939.891436      -1939.820042
       Temperature       (K)  =       6.931316          6.748987
       Pressure         (GPa) =      -0.115756         -0.113403
  ** Time :            0.42000 ps :
     Properties:                   Instantaneous       Averaged
       Kinetic energy    (eV) =       0.027748          0.027060
       Potential energy  (eV) =   -1939.920851      -1939.848841
       Total energy      (eV) =   -1939.893103      -1939.821781
       Temperature       (K)  =       6.924789          6.753173
       Pressure         (GPa) =      -0.115232         -0.113447
  ** Time :            0.43000 ps :
     Properties:                   Instantaneous       Averaged
       Kinetic energy    (eV) =       0.027795          0.027077
       Potential energy  (eV) =   -1939.919675      -1939.850489
       Total energy      (eV) =   -1939.891880      -1939.823411
       Temperature       (K)  =       6.936517          6.757437
       Pressure         (GPa) =      -0.114676         -0.113475
  ** Time :            0.44000 ps :
     Properties:                   Instantaneous       Averaged
       Kinetic energy    (eV) =       0.027983          0.027098
       Potential energy  (eV) =   -1939.916274      -1939.851984
       Total energy      (eV) =   -1939.888291      -1939.824886
       Temperature       (K)  =       6.983340          6.762571
       Pressure         (GPa) =      -0.114141         -0.113490
  ** Time :            0.45000 ps :
     Properties:                   Instantaneous       Averaged
       Kinetic energy    (eV) =       0.028269          0.027124
       Potential energy  (eV) =   -1939.912426      -1939.853327
       Total energy      (eV) =   -1939.884157      -1939.826203
       Temperature       (K)  =       7.054762          6.769064
       Pressure         (GPa) =      -0.113709         -0.113495
  ** Time :            0.46000 ps :
     Properties:                   Instantaneous       Averaged
       Kinetic energy    (eV) =       0.028495          0.027154
       Potential energy  (eV) =   -1939.910717      -1939.854575
       Total energy      (eV) =   -1939.882222      -1939.827421
       Temperature       (K)  =       7.111131          6.776500
       Pressure         (GPa) =      -0.113482         -0.113495
  ** Time :            0.47000 ps :
     Properties:                   Instantaneous       Averaged
       Kinetic energy    (eV) =       0.028374          0.027180
       Potential energy  (eV) =   -1939.912808      -1939.855814
       Total energy      (eV) =   -1939.884434      -1939.828634
       Temperature       (K)  =       7.080927          6.782978
       Pressure         (GPa) =      -0.113528         -0.113496
  ** Time :            0.48000 ps :
     Properties:                   Instantaneous       Averaged
       Kinetic energy    (eV) =       0.028073          0.027198
       Potential energy  (eV) =   -1939.917647      -1939.857102
       Total energy      (eV) =   -1939.889573      -1939.829903
       Temperature       (K)  =       7.005947          6.787623
       Pressure         (GPa) =      -0.113818         -0.113502
  ** Time :            0.49000 ps :
     Properties:                   Instantaneous       Averaged
       Kinetic energy    (eV) =       0.027821          0.027211
       Potential energy  (eV) =   -1939.922670      -1939.858440
       Total energy      (eV) =   -1939.894849      -1939.831229
       Temperature       (K)  =       6.942977          6.790793
       Pressure         (GPa) =      -0.114255         -0.113518
  ** Time :            0.50000 ps :
     Properties:                   Instantaneous       Averaged
       Kinetic energy    (eV) =       0.027710          0.027221
       Potential energy  (eV) =   -1939.925692      -1939.859785
       Total energy      (eV) =   -1939.897982      -1939.832564
       Temperature       (K)  =       6.915228          6.793282
       Pressure         (GPa) =      -0.114747         -0.113542
  ** Time :            0.51000 ps :
     Properties:                   Instantaneous       Averaged
       Kinetic energy    (eV) =       0.027677          0.027230
       Potential energy  (eV) =   -1939.925559      -1939.861075
       Total energy      (eV) =   -1939.897881      -1939.833845
       Temperature       (K)  =       6.907138          6.795514
       Pressure         (GPa) =      -0.115227         -0.113575
  ** Time :            0.52000 ps :
     Properties:                   Instantaneous       Averaged
       Kinetic energy    (eV) =       0.027725          0.027240
       Potential energy  (eV) =   -1939.921945      -1939.862245
       Total energy      (eV) =   -1939.894220      -1939.835006
       Temperature       (K)  =       6.918924          6.797888
       Pressure         (GPa) =      -0.115656         -0.113615
  ** Time :            0.53000 ps :
     Properties:                   Instantaneous       Averaged
       Kinetic energy    (eV) =       0.027832          0.027251
       Potential energy  (eV) =   -1939.915244      -1939.863245
       Total energy      (eV) =   -1939.887412      -1939.835994
       Temperature       (K)  =       6.945621          6.800675
       Pressure         (GPa) =      -0.116009         -0.113660
  ** Time :            0.54000 ps :
     Properties:                   Instantaneous       Averaged
       Kinetic energy    (eV) =       0.028078          0.027266
       Potential energy  (eV) =   -1939.906626      -1939.864049
       Total energy      (eV) =   -1939.878548      -1939.836783
       Temperature       (K)  =       7.007012          6.804496
       Pressure         (GPa) =      -0.116268         -0.113709
  ** Time :            0.55000 ps :
     Properties:                   Instantaneous       Averaged
       Kinetic energy    (eV) =       0.028472          0.027288
       Potential energy  (eV) =   -1939.898536      -1939.864676
       Total energy      (eV) =   -1939.870063      -1939.837388
       Temperature       (K)  =       7.105524          6.809969
       Pressure         (GPa) =      -0.116425         -0.113758
  ** Time :            0.56000 ps :
     Properties:                   Instantaneous       Averaged
       Kinetic energy    (eV) =       0.028831          0.027316
       Potential energy  (eV) =   -1939.894685      -1939.865212
       Total energy      (eV) =   -1939.865854      -1939.837896
       Temperature       (K)  =       7.195004          6.816845
       Pressure         (GPa) =      -0.116482         -0.113807
  ** Time :            0.57000 ps :
     Properties:                   Instantaneous       Averaged
       Kinetic energy    (eV) =       0.028664          0.027339
       Potential energy  (eV) =   -1939.897769      -1939.865783
       Total energy      (eV) =   -1939.869104      -1939.838443
       Temperature       (K)  =       7.153412          6.822750
       Pressure         (GPa) =      -0.116449         -0.113853
  ** Time :            0.58000 ps :
     Properties:                   Instantaneous       Averaged
       Kinetic energy    (eV) =       0.028222          0.027354
       Potential energy  (eV) =   -1939.906282      -1939.866481
       Total energy      (eV) =   -1939.878060      -1939.839127
       Temperature       (K)  =       7.042968          6.826547
       Pressure         (GPa) =      -0.116325         -0.113896
  ** Time :            0.59000 ps :
     Properties:                   Instantaneous       Averaged
       Kinetic energy    (eV) =       0.027894          0.027364
       Potential energy  (eV) =   -1939.916479      -1939.867328
       Total energy      (eV) =   -1939.888585      -1939.839965
       Temperature       (K)  =       6.961139          6.828828
       Pressure         (GPa) =      -0.116102         -0.113933
  ** Time :            0.60000 ps :
     Properties:                   Instantaneous       Averaged
       Kinetic energy    (eV) =       0.027737          0.027370
       Potential energy  (eV) =   -1939.925417      -1939.868297
       Total energy      (eV) =   -1939.897680      -1939.840927
       Temperature       (K)  =       6.921970          6.830380
       Pressure         (GPa) =      -0.115782         -0.113964
  ** Time :            0.61000 ps :
     Properties:                   Instantaneous       Averaged
       Kinetic energy    (eV) =       0.027660          0.027375
       Potential energy  (eV) =   -1939.931456      -1939.869332
       Total energy      (eV) =   -1939.903796      -1939.841957
       Temperature       (K)  =       6.902910          6.831569
       Pressure         (GPa) =      -0.115372         -0.113987
  ** Time :            0.62000 ps :
     Properties:                   Instantaneous       Averaged
       Kinetic energy    (eV) =       0.027645          0.027379
       Potential energy  (eV) =   -1939.933806      -1939.870372
       Total energy      (eV) =   -1939.906161      -1939.842993
       Temperature       (K)  =       6.899169          6.832659
       Pressure         (GPa) =      -0.114886         -0.114001
  ** Time :            0.63000 ps :
     Properties:                   Instantaneous       Averaged
       Kinetic energy    (eV) =       0.027681          0.027384
       Potential energy  (eV) =   -1939.932292      -1939.871355
       Total energy      (eV) =   -1939.904610      -1939.843971
       Temperature       (K)  =       6.908092          6.833857
       Pressure         (GPa) =      -0.114347         -0.114007
  ** Time :            0.64000 ps :
     Properties:                   Instantaneous       Averaged
       Kinetic energy    (eV) =       0.027819          0.027391
       Potential energy  (eV) =   -1939.927348      -1939.872230
       Total energy      (eV) =   -1939.899528      -1939.844839
       Temperature       (K)  =       6.942577          6.835556
       Pressure         (GPa) =      -0.113794         -0.114004
  ** Time :            0.65000 ps :
     Properties:                   Instantaneous       Averaged
       Kinetic energy    (eV) =       0.028089          0.027401
       Potential energy  (eV) =   -1939.920368      -1939.872970
       Total energy      (eV) =   -1939.892280      -1939.845569
       Temperature       (K)  =       7.009764          6.838236
       Pressure         (GPa) =      -0.113293         -0.113993
  ** Time :            0.66000 ps :
     Properties:                   Instantaneous       Averaged
       Kinetic energy    (eV) =       0.028439          0.027417
       Potential energy  (eV) =   -1939.913937      -1939.873591
       Total energy      (eV) =   -1939.885499      -1939.846174
       Temperature       (K)  =       7.097116          6.842158
       Pressure         (GPa) =      -0.112947         -0.113977
  ** Time :            0.67000 ps :
     Properties:                   Instantaneous       Averaged
       Kinetic energy    (eV) =       0.028570          0.027434
       Potential energy  (eV) =   -1939.911020      -1939.874150
       Total energy      (eV) =   -1939.882450      -1939.846715
       Temperature       (K)  =       7.129996          6.846454
       Pressure         (GPa) =      -0.112865         -0.113960
  ** Time :            0.68000 ps :
     Properties:                   Instantaneous       Averaged
       Kinetic energy    (eV) =       0.028379          0.027448
       Potential energy  (eV) =   -1939.912668      -1939.874716
       Total energy      (eV) =   -1939.884289      -1939.847268
       Temperature       (K)  =       7.082241          6.849922
       Pressure         (GPa) =      -0.113086         -0.113947
  ** Time :            0.69000 ps :
     Properties:                   Instantaneous       Averaged
       Kinetic energy    (eV) =       0.028111          0.027458
       Potential energy  (eV) =   -1939.917323      -1939.875333
       Total energy      (eV) =   -1939.889211      -1939.847876
       Temperature       (K)  =       7.015467          6.852321
       Pressure         (GPa) =      -0.113543         -0.113942
  ** Time :            0.70000 ps :
     Properties:                   Instantaneous       Averaged
       Kinetic energy    (eV) =       0.027942          0.027465
       Potential energy  (eV) =   -1939.922713      -1939.876010
       Total energy      (eV) =   -1939.894771      -1939.848546
       Temperature       (K)  =       6.973286          6.854049
       Pressure         (GPa) =      -0.114123         -0.113944
  ** Time :            0.71000 ps :
     Properties:                   Instantaneous       Averaged
       Kinetic energy    (eV) =       0.027858          0.027470
       Potential energy  (eV) =   -1939.927214      -1939.876731
       Total energy      (eV) =   -1939.899356      -1939.849261
       Temperature       (K)  =       6.952207          6.855431
       Pressure         (GPa) =      -0.114729         -0.113955
  ** Time :            0.72000 ps :
     Properties:                   Instantaneous       Averaged
       Kinetic energy    (eV) =       0.027852          0.027475
       Potential energy  (eV) =   -1939.929997      -1939.877471
       Total energy      (eV) =   -1939.902146      -1939.849996
       Temperature       (K)  =       6.950708          6.856755
       Pressure         (GPa) =      -0.115295         -0.113974
  ** Time :            0.73000 ps :
     Properties:                   Instantaneous       Averaged
       Kinetic energy    (eV) =       0.027895          0.027481
       Potential energy  (eV) =   -1939.930946      -1939.878204
       Total energy      (eV) =   -1939.903051      -1939.850723
       Temperature       (K)  =       6.961372          6.858188
       Pressure         (GPa) =      -0.115774         -0.113998
  ** Time :            0.74000 ps :
     Properties:                   Instantaneous       Averaged
       Kinetic energy    (eV) =       0.027981          0.027488
       Potential energy  (eV) =   -1939.930463      -1939.878910
       Total energy      (eV) =   -1939.902482      -1939.851422
       Temperature       (K)  =       6.982800          6.859872
       Pressure         (GPa) =      -0.116139         -0.114027
  ** Time :            0.75000 ps :
     Properties:                   Instantaneous       Averaged
       Kinetic energy    (eV) =       0.028064          0.027496
       Potential energy  (eV) =   -1939.929303      -1939.879582
       Total energy      (eV) =   -1939.901239      -1939.852086
       Temperature       (K)  =       7.003681          6.861789
       Pressure         (GPa) =      -0.116372         -0.114059
  ** Time :            0.76000 ps :
     Properties:                   Instantaneous       Averaged
       Kinetic energy    (eV) =       0.028121          0.027504
       Potential energy  (eV) =   -1939.928240      -1939.880222
       Total energy      (eV) =   -1939.900119      -1939.852718
       Temperature       (K)  =       7.017823          6.863842
       Pressure         (GPa) =      -0.116462         -0.114090
  ** Time :            0.77000 ps :
     Properties:                   Instantaneous       Averaged
       Kinetic energy    (eV) =       0.028108          0.027512
       Potential energy  (eV) =   -1939.927741      -1939.880839
       Total energy      (eV) =   -1939.899633      -1939.853328
       Temperature       (K)  =       7.014562          6.865800
       Pressure         (GPa) =      -0.116408         -0.114120
  ** Time :            0.78000 ps :
     Properties:                   Instantaneous       Averaged
       Kinetic energy    (eV) =       0.028043          0.027519
       Potential energy  (eV) =   -1939.927700      -1939.881440
       Total energy      (eV) =   -1939.899656      -1939.853922
       Temperature       (K)  =       6.998490          6.867501
       Pressure         (GPa) =      -0.116218         -0.114147
  ** Time :            0.79000 ps :
     Properties:                   Instantaneous       Averaged
       Kinetic energy    (eV) =       0.027942          0.027524
       Potential energy  (eV) =   -1939.927498      -1939.882023
       Total energy      (eV) =   -1939.899556      -1939.854499
       Temperature       (K)  =       6.973307          6.868840
       Pressure         (GPa) =      -0.115907         -0.114170
  ** Time :            0.80000 ps :
     Properties:                   Instantaneous       Averaged
       Kinetic energy    (eV) =       0.027856          0.027528
       Potential energy  (eV) =   -1939.926246      -1939.882576
       Total energy      (eV) =   -1939.898390      -1939.855048
       Temperature       (K)  =       6.951776          6.869877
       Pressure         (GPa) =      -0.115497         -0.114186
  ** Time :            0.81000 ps :
     Properties:                   Instantaneous       Averaged
       Kinetic energy    (eV) =       0.027800          0.027531
       Potential energy  (eV) =   -1939.923137      -1939.883077
       Total energy      (eV) =   -1939.895337      -1939.855545
       Temperature       (K)  =       6.937786          6.870715
       Pressure         (GPa) =      -0.115013         -0.114196
  ** Time :            0.82000 ps :
     Properties:                   Instantaneous       Averaged
       Kinetic energy    (eV) =       0.027824          0.027535
       Potential energy  (eV) =   -1939.917726      -1939.883499
       Total energy      (eV) =   -1939.889901      -1939.855964
       Temperature       (K)  =       6.943788          6.871606
       Pressure         (GPa) =      -0.114489         -0.114200
  ** Time :            0.83000 ps :
     Properties:                   Instantaneous       Averaged
       Kinetic energy    (eV) =       0.027959          0.027540
       Potential energy  (eV) =   -1939.910300      -1939.883822
       Total energy      (eV) =   -1939.882341      -1939.856282
       Temperature       (K)  =       6.977423          6.872881
       Pressure         (GPa) =      -0.113974         -0.114197
  ** Time :            0.84000 ps :
     Properties:                   Instantaneous       Averaged
       Kinetic energy    (eV) =       0.028241          0.027548
       Potential energy  (eV) =   -1939.902256      -1939.884042
       Total energy      (eV) =   -1939.874015      -1939.856493
       Temperature       (K)  =       7.047830          6.874964
       Pressure         (GPa) =      -0.113547         -0.114189
  ** Time :            0.85000 ps :
     Properties:                   Instantaneous       Averaged
       Kinetic energy    (eV) =       0.028507          0.027560
       Potential energy  (eV) =   -1939.896114      -1939.884184
       Total energy      (eV) =   -1939.867607      -1939.856624
       Temperature       (K)  =       7.114137          6.877778
       Pressure         (GPa) =      -0.113314         -0.114179
  ** Time :            0.86000 ps :
     Properties:                   Instantaneous       Averaged
       Kinetic energy    (eV) =       0.028470          0.027570
       Potential energy  (eV) =   -1939.894007      -1939.884298
       Total energy      (eV) =   -1939.865537      -1939.856727
       Temperature       (K)  =       7.104944          6.880419
       Pressure         (GPa) =      -0.113357         -0.114170
  ** Time :            0.87000 ps :
     Properties:                   Instantaneous       Averaged
       Kinetic energy    (eV) =       0.028148          0.027577
       Potential energy  (eV) =   -1939.895455      -1939.884426
       Total energy      (eV) =   -1939.867307      -1939.856849
       Temperature       (K)  =       7.024655          6.882077
       Pressure         (GPa) =      -0.113667         -0.114164
  ** Time :            0.88000 ps :
     Properties:                   Instantaneous       Averaged
       Kinetic energy    (eV) =       0.027890          0.027580
       Potential energy  (eV) =   -1939.897873      -1939.884579
       Total energy      (eV) =   -1939.869983      -1939.856998
       Temperature       (K)  =       6.960214          6.882965
       Pressure         (GPa) =      -0.114151         -0.114164
  ** Time :            0.89000 ps :
     Properties:                   Instantaneous       Averaged
       Kinetic energy    (eV) =       0.027778          0.027583
       Potential energy  (eV) =   -1939.898982      -1939.884741
       Total energy      (eV) =   -1939.871205      -1939.857158
       Temperature       (K)  =       6.932157          6.883518
       Pressure         (GPa) =      -0.114711         -0.114170
  ** Time :            0.90000 ps :
     Properties:                   Instantaneous       Averaged
       Kinetic energy    (eV) =       0.027818          0.027585
       Potential energy  (eV) =   -1939.897763      -1939.884885
       Total energy      (eV) =   -1939.869944      -1939.857300
       Temperature       (K)  =       6.942298          6.884171
       Pressure         (GPa) =      -0.115280         -0.114182
  ** Time :            0.91000 ps :
     Properties:                   Instantaneous       Averaged
       Kinetic energy    (eV) =       0.027930          0.027589
       Potential energy  (eV) =   -1939.894441      -1939.884990
       Total energy      (eV) =   -1939.866511      -1939.857401
       Temperature       (K)  =       6.970211          6.885116
       Pressure         (GPa) =      -0.115818         -0.114200
  ** Time :            0.92000 ps :
     Properties:                   Instantaneous       Averaged
       Kinetic energy    (eV) =       0.028104          0.027595
       Potential energy  (eV) =   -1939.890074      -1939.885046
       Total energy      (eV) =   -1939.861969      -1939.857451
       Temperature       (K)  =       7.013672          6.886514
       Pressure         (GPa) =      -0.116294         -0.114223
  ** Time :            0.93000 ps :
     Properties:                   Instantaneous       Averaged
       Kinetic energy    (eV) =       0.028258          0.027602
       Potential energy  (eV) =   -1939.886210      -1939.885058
       Total energy      (eV) =   -1939.857952      -1939.857456
       Temperature       (K)  =       7.052020          6.888293
       Pressure         (GPa) =      -0.116678         -0.114249
  ** Time :            0.94000 ps :
     Properties:                   Instantaneous       Averaged
       Kinetic energy    (eV) =       0.028375          0.027610
       Potential energy  (eV) =   -1939.884366      -1939.885051
       Total energy      (eV) =   -1939.855991      -1939.857441
       Temperature       (K)  =       7.081260          6.890346
       Pressure         (GPa) =      -0.116934         -0.114278
  ** Time :            0.95000 ps :
     Properties:                   Instantaneous       Averaged
       Kinetic energy    (eV) =       0.028360          0.027618
       Potential energy  (eV) =   -1939.885530      -1939.885056
       Total energy      (eV) =   -1939.857169      -1939.857438
       Temperature       (K)  =       7.077615          6.892317
       Pressure         (GPa) =      -0.117037         -0.114307
  ** Time :            0.96000 ps :
     Properties:                   Instantaneous       Averaged
       Kinetic energy    (eV) =       0.028251          0.027625
       Potential energy  (eV) =   -1939.889598      -1939.885103
       Total energy      (eV) =   -1939.861347      -1939.857479
       Temperature       (K)  =       7.050212          6.893962
       Pressure         (GPa) =      -0.116980         -0.114335
  ** Time :            0.97000 ps :
     Properties:                   Instantaneous       Averaged
       Kinetic energy    (eV) =       0.028064          0.027629
       Potential energy  (eV) =   -1939.895457      -1939.885210
       Total energy      (eV) =   -1939.867393      -1939.857581
       Temperature       (K)  =       7.003572          6.895092
       Pressure         (GPa) =      -0.116776         -0.114360
  ** Time :            0.98000 ps :
     Properties:                   Instantaneous       Averaged
       Kinetic energy    (eV) =       0.027910          0.027632
       Potential energy  (eV) =   -1939.901457      -1939.885376
       Total energy      (eV) =   -1939.873547      -1939.857744
       Temperature       (K)  =       6.965121          6.895807
       Pressure         (GPa) =      -0.116448         -0.114381
  ** Time :            0.99000 ps :
     Properties:                   Instantaneous       Averaged
       Kinetic energy    (eV) =       0.027779          0.027633
       Potential energy  (eV) =   -1939.906085      -1939.885585
       Total energy      (eV) =   -1939.878306      -1939.857951
       Temperature       (K)  =       6.932618          6.896179
       Pressure         (GPa) =      -0.116021         -0.114398
  ** Time :            1.00000 ps :
     Properties:                   Instantaneous       Averaged
       Kinetic energy    (eV) =       0.027723          0.027634
       Potential energy  (eV) =   -1939.908184      -1939.885811
       Total energy      (eV) =   -1939.880461      -1939.858176
       Temperature       (K)  =       6.918580          6.896403
       Pressure         (GPa) =      -0.115518         -0.114409
  ** Time :            1.01000 ps :
     Properties:                   Instantaneous       Averaged
       Kinetic energy    (eV) =       0.027723          0.027635
       Potential energy  (eV) =   -1939.907185      -1939.886022
       Total energy      (eV) =   -1939.879462      -1939.858387
       Temperature       (K)  =       6.918586          6.896622
       Pressure         (GPa) =      -0.114967         -0.114415
  ** Time :            1.02000 ps :
     Properties:                   Instantaneous       Averaged
       Kinetic energy    (eV) =       0.027862          0.027637
       Potential energy  (eV) =   -1939.903246      -1939.886191
       Total energy      (eV) =   -1939.875384      -1939.858554
       Temperature       (K)  =       6.953193          6.897177
       Pressure         (GPa) =      -0.114410         -0.114414
  ** Time :            1.03000 ps :
     Properties:                   Instantaneous       Averaged
       Kinetic energy    (eV) =       0.028157          0.027642
       Potential energy  (eV) =   -1939.897758      -1939.886304
       Total energy      (eV) =   -1939.869601      -1939.858661
       Temperature       (K)  =       7.026892          6.898436
       Pressure         (GPa) =      -0.113918         -0.114410
  ** Time :            1.04000 ps :
     Properties:                   Instantaneous       Averaged
       Kinetic energy    (eV) =       0.028554          0.027651
       Potential energy  (eV) =   -1939.893588      -1939.886374
       Total energy      (eV) =   -1939.865034      -1939.858722
       Temperature       (K)  =       7.125909          6.900623
       Pressure         (GPa) =      -0.113598         -0.114402
  ** Time :            1.05000 ps :
     Properties:                   Instantaneous       Averaged
       Kinetic energy    (eV) =       0.028613          0.027660
       Potential energy  (eV) =   -1939.893915      -1939.886445
       Total energy      (eV) =   -1939.865301      -1939.858785
       Temperature       (K)  =       7.140758          6.902910
       Pressure         (GPa) =      -0.113558         -0.114394
  ** Time :            1.06000 ps :
     Properties:                   Instantaneous       Averaged
       Kinetic energy    (eV) =       0.028267          0.027666
       Potential energy  (eV) =   -1939.899017      -1939.886564
       Total energy      (eV) =   -1939.870750      -1939.858898
       Temperature       (K)  =       7.054326          6.904339
       Pressure         (GPa) =      -0.113812         -0.114388
  ** Time :            1.07000 ps :
     Properties:                   Instantaneous       Averaged
       Kinetic energy    (eV) =       0.027907          0.027668
       Potential energy  (eV) =   -1939.906010      -1939.886746
       Total energy      (eV) =   -1939.878103      -1939.859077
       Temperature       (K)  =       6.964377          6.904900
       Pressure         (GPa) =      -0.114257         -0.114387
  ** Time :            1.08000 ps :
     Properties:                   Instantaneous       Averaged
       Kinetic energy    (eV) =       0.027743          0.027669
       Potential energy  (eV) =   -1939.911884      -1939.886979
       Total energy      (eV) =   -1939.884142      -1939.859310
       Temperature       (K)  =       6.923475          6.905072
       Pressure         (GPa) =      -0.114777         -0.114391
  ** Time :            1.09000 ps :
     Properties:                   Instantaneous       Averaged
       Kinetic energy    (eV) =       0.027711          0.027669
       Potential energy  (eV) =   -1939.915042      -1939.887236
       Total energy      (eV) =   -1939.887330      -1939.859567
       Temperature       (K)  =       6.915597          6.905169
       Pressure         (GPa) =      -0.115288         -0.114399
  ** Time :            1.10000 ps :
     Properties:                   Instantaneous       Averaged
       Kinetic energy    (eV) =       0.027779          0.027670
       Potential energy  (eV) =   -1939.915113      -1939.887489
       Total energy      (eV) =   -1939.887334      -1939.859819
       Temperature       (K)  =       6.932547          6.905417
       Pressure         (GPa) =      -0.115745         -0.114411
  ** Time :            1.11000 ps :
     Properties:                   Instantaneous       Averaged
       Kinetic energy    (eV) =       0.027891          0.027672
       Potential energy  (eV) =   -1939.912627      -1939.887716
       Total energy      (eV) =   -1939.884736      -1939.860043
       Temperature       (K)  =       6.960531          6.905914
       Pressure         (GPa) =      -0.116118         -0.114427
  ** Time :            1.12000 ps :
[...]
       Potential energy  (eV) =   -1939.935178      -1939.916038
       Total energy      (eV) =   -1939.907218      -1939.888079
       Temperature       (K)  =       6.977595          6.977269
       Pressure         (GPa) =      -0.115186         -0.114917
  ** Time :            4.57000 ps :
     Properties:                   Instantaneous       Averaged
       Kinetic energy    (eV) =       0.027984          0.027958
       Potential energy  (eV) =   -1939.934025      -1939.916077
       Total energy      (eV) =   -1939.906041      -1939.888119
       Temperature       (K)  =       6.983664          6.977283
       Pressure         (GPa) =      -0.115317         -0.114918
  ** Time :            4.58000 ps :
     Properties:                   Instantaneous       Averaged
       Kinetic energy    (eV) =       0.028049          0.027959
       Potential energy  (eV) =   -1939.932308      -1939.916113
       Total energy      (eV) =   -1939.904259      -1939.888154
       Temperature       (K)  =       6.999846          6.977332
       Pressure         (GPa) =      -0.115423         -0.114919
  ** Time :            4.59000 ps :
     Properties:                   Instantaneous       Averaged
       Kinetic energy    (eV) =       0.028115          0.027959
       Potential energy  (eV) =   -1939.930598      -1939.916144
       Total energy      (eV) =   -1939.902483      -1939.888185
       Temperature       (K)  =       7.016454          6.977417
       Pressure         (GPa) =      -0.115498         -0.114920
  ** Time :            4.60000 ps :
     Properties:                   Instantaneous       Averaged
       Kinetic energy    (eV) =       0.028165          0.027959
       Potential energy  (eV) =   -1939.929522      -1939.916173
       Total energy      (eV) =   -1939.901357      -1939.888214
       Temperature       (K)  =       7.028763          6.977529
       Pressure         (GPa) =      -0.115539         -0.114922
  ** Time :            4.61000 ps :
     Properties:                   Instantaneous       Averaged
       Kinetic energy    (eV) =       0.028146          0.027960
       Potential energy  (eV) =   -1939.929457      -1939.916202
       Total energy      (eV) =   -1939.901311      -1939.888242
       Temperature       (K)  =       7.024064          6.977630
       Pressure         (GPa) =      -0.115544         -0.114923
  ** Time :            4.62000 ps :
     Properties:                   Instantaneous       Averaged
       Kinetic energy    (eV) =       0.028095          0.027960
       Potential energy  (eV) =   -1939.930270      -1939.916232
       Total energy      (eV) =   -1939.902176      -1939.888272
       Temperature       (K)  =       7.011273          6.977703
       Pressure         (GPa) =      -0.115508         -0.114924
  ** Time :            4.63000 ps :
     Properties:                   Instantaneous       Averaged
       Kinetic energy    (eV) =       0.028026          0.027960
       Potential energy  (eV) =   -1939.931478      -1939.916265
       Total energy      (eV) =   -1939.903453      -1939.888305
       Temperature       (K)  =       6.994088          6.977738
       Pressure         (GPa) =      -0.115426         -0.114925
  ** Time :            4.64000 ps :
     Properties:                   Instantaneous       Averaged
       Kinetic energy    (eV) =       0.027979          0.027960
       Potential energy  (eV) =   -1939.932486      -1939.916300
       Total energy      (eV) =   -1939.904507      -1939.888340
       Temperature       (K)  =       6.982444          6.977748
       Pressure         (GPa) =      -0.115298         -0.114926
  ** Time :            4.65000 ps :
     Properties:                   Instantaneous       Averaged
       Kinetic energy    (eV) =       0.027945          0.027960
       Potential energy  (eV) =   -1939.932819      -1939.916336
       Total energy      (eV) =   -1939.904873      -1939.888376
       Temperature       (K)  =       6.974052          6.977740
       Pressure         (GPa) =      -0.115128         -0.114927
  ** Time :            4.66000 ps :
     Properties:                   Instantaneous       Averaged
       Kinetic energy    (eV) =       0.027959          0.027960
       Potential energy  (eV) =   -1939.932216      -1939.916370
       Total energy      (eV) =   -1939.904256      -1939.888410
       Temperature       (K)  =       6.977528          6.977740
       Pressure         (GPa) =      -0.114931         -0.114927
  ** Time :            4.67000 ps :
     Properties:                   Instantaneous       Averaged
       Kinetic energy    (eV) =       0.028020          0.027960
       Potential energy  (eV) =   -1939.930818      -1939.916401
       Total energy      (eV) =   -1939.902799      -1939.888440
       Temperature       (K)  =       6.992569          6.977771
       Pressure         (GPa) =      -0.114727         -0.114926
  ** Time :            4.68000 ps :
     Properties:                   Instantaneous       Averaged
       Kinetic energy    (eV) =       0.028130          0.027961
       Potential energy  (eV) =   -1939.929245      -1939.916428
       Total energy      (eV) =   -1939.901114      -1939.888468
       Temperature       (K)  =       7.020162          6.977862
       Pressure         (GPa) =      -0.114550         -0.114925
  ** Time :            4.69000 ps :
     Properties:                   Instantaneous       Averaged
       Kinetic energy    (eV) =       0.028200          0.027961
       Potential energy  (eV) =   -1939.928420      -1939.916454
       Total energy      (eV) =   -1939.900221      -1939.888493
       Temperature       (K)  =       7.037469          6.977989
       Pressure         (GPa) =      -0.114436         -0.114924
  ** Time :            4.70000 ps :
     Properties:                   Instantaneous       Averaged
       Kinetic energy    (eV) =       0.028181          0.027962
       Potential energy  (eV) =   -1939.928922      -1939.916480
       Total energy      (eV) =   -1939.900741      -1939.888519
       Temperature       (K)  =       7.032881          6.978106
       Pressure         (GPa) =      -0.114412         -0.114923
  ** Time :            4.71000 ps :
     Properties:                   Instantaneous       Averaged
       Kinetic energy    (eV) =       0.028088          0.027962
       Potential energy  (eV) =   -1939.930554      -1939.916510
       Total energy      (eV) =   -1939.902466      -1939.888548
       Temperature       (K)  =       7.009632          6.978173
       Pressure         (GPa) =      -0.114480         -0.114922
  ** Time :            4.72000 ps :
     Properties:                   Instantaneous       Averaged
       Kinetic energy    (eV) =       0.028003          0.027962
       Potential energy  (eV) =   -1939.932553      -1939.916544
       Total energy      (eV) =   -1939.904549      -1939.888582
       Temperature       (K)  =       6.988477          6.978195
       Pressure         (GPa) =      -0.114616         -0.114922
  ** Time :            4.73000 ps :
     Properties:                   Instantaneous       Averaged
       Kinetic energy    (eV) =       0.027944          0.027962
       Potential energy  (eV) =   -1939.934132      -1939.916581
       Total energy      (eV) =   -1939.906188      -1939.888619
       Temperature       (K)  =       6.973751          6.978185
       Pressure         (GPa) =      -0.114792         -0.114921
  ** Time :            4.74000 ps :
     Properties:                   Instantaneous       Averaged
       Kinetic energy    (eV) =       0.027933          0.027962
       Potential energy  (eV) =   -1939.934768      -1939.916620
       Total energy      (eV) =   -1939.906835      -1939.888658
       Temperature       (K)  =       6.970867          6.978170
       Pressure         (GPa) =      -0.114979         -0.114922
  ** Time :            4.75000 ps :
     Properties:                   Instantaneous       Averaged
       Kinetic energy    (eV) =       0.027955          0.027962
       Potential energy  (eV) =   -1939.934323      -1939.916657
       Total energy      (eV) =   -1939.906368      -1939.888695
       Temperature       (K)  =       6.976526          6.978166
       Pressure         (GPa) =      -0.115156         -0.114922
  ** Time :            4.76000 ps :
     Properties:                   Instantaneous       Averaged
       Kinetic energy    (eV) =       0.028027          0.027962
       Potential energy  (eV) =   -1939.933053      -1939.916692
       Total energy      (eV) =   -1939.905026      -1939.888729
       Temperature       (K)  =       6.994510          6.978201
       Pressure         (GPa) =      -0.115310         -0.114923
  ** Time :            4.77000 ps :
     Properties:                   Instantaneous       Averaged
       Kinetic energy    (eV) =       0.028116          0.027962
       Potential energy  (eV) =   -1939.931612      -1939.916723
       Total energy      (eV) =   -1939.903496      -1939.888760
       Temperature       (K)  =       7.016604          6.978281
       Pressure         (GPa) =      -0.115434         -0.114924
  ** Time :            4.78000 ps :
     Properties:                   Instantaneous       Averaged
       Kinetic energy    (eV) =       0.028191          0.027963
       Potential energy  (eV) =   -1939.930821      -1939.916752
       Total energy      (eV) =   -1939.902630      -1939.888789
       Temperature       (K)  =       7.035211          6.978400
       Pressure         (GPa) =      -0.115528         -0.114925
  ** Time :            4.79000 ps :
     Properties:                   Instantaneous       Averaged
       Kinetic energy    (eV) =       0.028188          0.027963
       Potential energy  (eV) =   -1939.931290      -1939.916783
       Total energy      (eV) =   -1939.903102      -1939.888819
       Temperature       (K)  =       7.034631          6.978518
       Pressure         (GPa) =      -0.115587         -0.114927
  ** Time :            4.80000 ps :
     Properties:                   Instantaneous       Averaged
       Kinetic energy    (eV) =       0.028123          0.027964
       Potential energy  (eV) =   -1939.932999      -1939.916816
       Total energy      (eV) =   -1939.904876      -1939.888853
       Temperature       (K)  =       7.018463          6.978601
       Pressure         (GPa) =      -0.115607         -0.114928
  ** Time :            4.81000 ps :
     Properties:                   Instantaneous       Averaged
       Kinetic energy    (eV) =       0.028028          0.027964
       Potential energy  (eV) =   -1939.935350      -1939.916855
       Total energy      (eV) =   -1939.907323      -1939.888891
       Temperature       (K)  =       6.994585          6.978634
       Pressure         (GPa) =      -0.115580         -0.114929
  ** Time :            4.82000 ps :
     Properties:                   Instantaneous       Averaged
       Kinetic energy    (eV) =       0.027952          0.027964
       Potential energy  (eV) =   -1939.937504      -1939.916898
       Total energy      (eV) =   -1939.909552      -1939.888934
       Temperature       (K)  =       6.975760          6.978628
       Pressure         (GPa) =      -0.115500         -0.114931
  ** Time :            4.83000 ps :
     Properties:                   Instantaneous       Averaged
       Kinetic energy    (eV) =       0.027898          0.027964
       Potential energy  (eV) =   -1939.938731      -1939.916943
       Total energy      (eV) =   -1939.910833      -1939.888979
       Temperature       (K)  =       6.962310          6.978594
       Pressure         (GPa) =      -0.115366         -0.114931
  ** Time :            4.84000 ps :
     Properties:                   Instantaneous       Averaged
       Kinetic energy    (eV) =       0.027883          0.027964
       Potential energy  (eV) =   -1939.938540      -1939.916988
       Total energy      (eV) =   -1939.910657      -1939.889024
       Temperature       (K)  =       6.958483          6.978553
       Pressure         (GPa) =      -0.115186         -0.114932
  ** Time :            4.85000 ps :
     Properties:                   Instantaneous       Averaged
       Kinetic energy    (eV) =       0.027902          0.027963
       Potential energy  (eV) =   -1939.936773      -1939.917028
       Total energy      (eV) =   -1939.908872      -1939.889065
       Temperature       (K)  =       6.963103          6.978521
       Pressure         (GPa) =      -0.114974         -0.114932
  ** Time :            4.86000 ps :
     Properties:                   Instantaneous       Averaged
       Kinetic energy    (eV) =       0.027973          0.027963
       Potential energy  (eV) =   -1939.933650      -1939.917063
       Total energy      (eV) =   -1939.905677      -1939.889099
       Temperature       (K)  =       6.980891          6.978526
       Pressure         (GPa) =      -0.114754         -0.114932
  ** Time :            4.87000 ps :
     Properties:                   Instantaneous       Averaged
       Kinetic energy    (eV) =       0.028067          0.027964
       Potential energy  (eV) =   -1939.929820      -1939.917089
       Total energy      (eV) =   -1939.901753      -1939.889125
       Temperature       (K)  =       7.004402          6.978579
       Pressure         (GPa) =      -0.114559         -0.114931
  ** Time :            4.88000 ps :
     Properties:                   Instantaneous       Averaged
       Kinetic energy    (eV) =       0.028161          0.027964
       Potential energy  (eV) =   -1939.926166      -1939.917107
       Total energy      (eV) =   -1939.898005      -1939.889143
       Temperature       (K)  =       7.027799          6.978680
       Pressure         (GPa) =      -0.114427         -0.114930
  ** Time :            4.89000 ps :
     Properties:                   Instantaneous       Averaged
       Kinetic energy    (eV) =       0.028236          0.027965
       Potential energy  (eV) =   -1939.923580      -1939.917121
       Total energy      (eV) =   -1939.895345      -1939.889156
       Temperature       (K)  =       7.046496          6.978819
       Pressure         (GPa) =      -0.114388         -0.114929
  ** Time :            4.90000 ps :
     Properties:                   Instantaneous       Averaged
       Kinetic energy    (eV) =       0.028304          0.027965
       Potential energy  (eV) =   -1939.922858      -1939.917132
       Total energy      (eV) =   -1939.894554      -1939.889167
       Temperature       (K)  =       7.063594          6.978992
       Pressure         (GPa) =      -0.114461         -0.114928
  ** Time :            4.91000 ps :
     Properties:                   Instantaneous       Averaged
       Kinetic energy    (eV) =       0.028216          0.027966
       Potential energy  (eV) =   -1939.924401      -1939.917147
       Total energy      (eV) =   -1939.896185      -1939.889181
       Temperature       (K)  =       7.041664          6.979119
       Pressure         (GPa) =      -0.114637         -0.114927
  ** Time :            4.92000 ps :
     Properties:                   Instantaneous       Averaged
       Kinetic energy    (eV) =       0.028005          0.027966
       Potential energy  (eV) =   -1939.927288      -1939.917168
       Total energy      (eV) =   -1939.899283      -1939.889202
       Temperature       (K)  =       6.988872          6.979139
       Pressure         (GPa) =      -0.114874         -0.114927
  ** Time :            4.93000 ps :
     Properties:                   Instantaneous       Averaged
       Kinetic energy    (eV) =       0.027900          0.027966
       Potential energy  (eV) =   -1939.929862      -1939.917194
       Total energy      (eV) =   -1939.901962      -1939.889228
       Temperature       (K)  =       6.962707          6.979106
       Pressure         (GPa) =      -0.115117         -0.114928
  ** Time :            4.94000 ps :
     Properties:                   Instantaneous       Averaged
       Kinetic energy    (eV) =       0.027900          0.027966
       Potential energy  (eV) =   -1939.931189      -1939.917222
       Total energy      (eV) =   -1939.903289      -1939.889256
       Temperature       (K)  =       6.962806          6.979073
       Pressure         (GPa) =      -0.115325         -0.114928
  ** Time :            4.95000 ps :
     Properties:                   Instantaneous       Averaged
       Kinetic energy    (eV) =       0.027973          0.027966
       Potential energy  (eV) =   -1939.931225      -1939.917250
       Total energy      (eV) =   -1939.903252      -1939.889285
       Temperature       (K)  =       6.980811          6.979076
       Pressure         (GPa) =      -0.115479         -0.114929
  ** Time :            4.96000 ps :
     Properties:                   Instantaneous       Averaged
       Kinetic energy    (eV) =       0.028059          0.027966
       Potential energy  (eV) =   -1939.930549      -1939.917277
       Total energy      (eV) =   -1939.902490      -1939.889311
       Temperature       (K)  =       7.002327          6.979123
       Pressure         (GPa) =      -0.115575         -0.114931
  ** Time :            4.97000 ps :
     Properties:                   Instantaneous       Averaged
       Kinetic energy    (eV) =       0.028132          0.027966
       Potential energy  (eV) =   -1939.929954      -1939.917302
       Total energy      (eV) =   -1939.901822      -1939.889336
       Temperature       (K)  =       7.020565          6.979206
       Pressure         (GPa) =      -0.115615         -0.114932
  ** Time :            4.98000 ps :
     Properties:                   Instantaneous       Averaged
       Kinetic energy    (eV) =       0.028127          0.027966
       Potential energy  (eV) =   -1939.930024      -1939.917328
       Total energy      (eV) =   -1939.901896      -1939.889362
       Temperature       (K)  =       7.019374          6.979287
       Pressure         (GPa) =      -0.115601         -0.114933
  ** Time :            4.99000 ps :
     Properties:                   Instantaneous       Averaged
       Kinetic energy    (eV) =       0.028078          0.027967
       Potential energy  (eV) =   -1939.930752      -1939.917355
       Total energy      (eV) =   -1939.902674      -1939.889388
       Temperature       (K)  =       7.007092          6.979343
       Pressure         (GPa) =      -0.115536         -0.114935
  ** Time :            5.00000 ps :
     Properties:                   Instantaneous       Averaged
       Kinetic energy    (eV) =       0.028038          0.027967
       Potential energy  (eV) =   -1939.931753      -1939.917384
       Total energy      (eV) =   -1939.903715      -1939.889417
       Temperature       (K)  =       6.997159          6.979378
       Pressure         (GPa) =      -0.115422         -0.114936

  Peak dynamic memory used =       1.02 MB 


  Timing analysis for GULP :

--------------------------------------------------------------------------------
  Task / Subroutine                                          Time (Seconds)
--------------------------------------------------------------------------------
  Calculation of real space energy and derivatives              676.4463
  Calculation of three-body energy and derivatives                2.3442
  Calculation of four-body energy and derivatives                 8.8445
  Global summation overhead                                       0.0120
--------------------------------------------------------------------------------
  Total CPU time                                                690.5832
--------------------------------------------------------------------------------


  Dump file written as surf.res                      


  Job Finished at 15:56.01  2nd December   2008                               

