********************************************************************************
*                       GENERAL UTILITY LATTICE PROGRAM                        *
*                                 Julian Gale                                  *
*                      Nanochemistry Research Institute                        *
*             Curtin University of Technology, Western Australia               *
********************************************************************************
* Version = 3.4.2 * Last modified =   7th January 2008                         *
********************************************************************************
*  single       - perform a single point run                                   *
*  phonon       - calculate phonons for final geometry                         *
********************************************************************************

  Job Started  at 17:59.48 11th January    2010                               

  Number of CPUs =     1


  Total number of configurations input =   1

********************************************************************************
*  Input for Configuration =   1                                               *
********************************************************************************

  Formula = Cu32                                                        

  Number of irreducible atoms/shells =      32


  Total number atoms/shells =      32

  Dimensionality = 3               :  Bulk   



  Supercell dimensions :  x =   2  y =   2  z =   2

  Cartesian lattice vectors (Angstroms) :

        7.220000    0.000000    0.000000
        0.000000    7.220000    0.000000
        0.000000    0.000000    7.220000

  Cell parameters (Angstroms/Degrees):

  a =       7.2200    alpha =  90.0000
  b =       7.2200    beta  =  90.0000
  c =       7.2200    gamma =  90.0000

  Initial cell volume =         376.367048 Angs**3

  Shrinking factors =      2     2     2

  Temperature of configuration =  0.000     K 

  Pressure of configuration =         0.000 GPa 

  Fractional coordinates of asymmetric unit :

--------------------------------------------------------------------------------
   No.  Atomic       x           y          z         Charge      Occupancy
        Label      (Frac)      (Frac)     (Frac)        (e)         (Frac)  
--------------------------------------------------------------------------------
      1 Cu    c    0.000000    0.000000    0.000000      0.0000    1.000000    
      2 Cu    c    0.000000    0.000000    0.500000      0.0000    1.000000    
      3 Cu    c    0.000000    0.500000    0.000000      0.0000    1.000000    
      4 Cu    c    0.000000    0.500000    0.500000      0.0000    1.000000    
      5 Cu    c    0.500000    0.000000    0.000000      0.0000    1.000000    
      6 Cu    c    0.500000    0.000000    0.500000      0.0000    1.000000    
      7 Cu    c    0.500000    0.500000    0.000000      0.0000    1.000000    
      8 Cu    c    0.500000    0.500000    0.500000      0.0000    1.000000    
      9 Cu    c    0.250000    0.250000    0.000000      0.0000    1.000000    
     10 Cu    c    0.250000    0.250000    0.500000      0.0000    1.000000    
     11 Cu    c    0.250000    0.750000    0.000000      0.0000    1.000000    
     12 Cu    c    0.250000    0.750000    0.500000      0.0000    1.000000    
     13 Cu    c    0.750000    0.250000    0.000000      0.0000    1.000000    
     14 Cu    c    0.750000    0.250000    0.500000      0.0000    1.000000    
     15 Cu    c    0.750000    0.750000    0.000000      0.0000    1.000000    
     16 Cu    c    0.750000    0.750000    0.500000      0.0000    1.000000    
     17 Cu    c    0.250000    0.000000    0.250000      0.0000    1.000000    
     18 Cu    c    0.250000    0.000000    0.750000      0.0000    1.000000    
     19 Cu    c    0.250000    0.500000    0.250000      0.0000    1.000000    
     20 Cu    c    0.250000    0.500000    0.750000      0.0000    1.000000    
     21 Cu    c    0.750000    0.000000    0.250000      0.0000    1.000000    
     22 Cu    c    0.750000    0.000000    0.750000      0.0000    1.000000    
     23 Cu    c    0.750000    0.500000    0.250000      0.0000    1.000000    
     24 Cu    c    0.750000    0.500000    0.750000      0.0000    1.000000    
     25 Cu    c    0.000000    0.250000    0.250000      0.0000    1.000000    
     26 Cu    c    0.000000    0.250000    0.750000      0.0000    1.000000    
     27 Cu    c    0.000000    0.750000    0.250000      0.0000    1.000000    
     28 Cu    c    0.000000    0.750000    0.750000      0.0000    1.000000    
     29 Cu    c    0.500000    0.250000    0.250000      0.0000    1.000000    
     30 Cu    c    0.500000    0.250000    0.750000      0.0000    1.000000    
     31 Cu    c    0.500000    0.750000    0.250000      0.0000    1.000000    
     32 Cu    c    0.500000    0.750000    0.750000      0.0000    1.000000    
--------------------------------------------------------------------------------


  Brillouin zone sampling points :

--------------------------------------------------------------------------------
  Point number          x          y          z            Weight
--------------------------------------------------------------------------------
        1           0.250000   0.250000   0.250000         0.2500
        2           0.250000   0.250000   0.750000         0.2500
        3           0.250000   0.750000   0.250000         0.2500
        4           0.250000   0.750000   0.750000         0.2500
--------------------------------------------------------------------------------


********************************************************************************
*  General input information                                                   *
********************************************************************************

  Species output for all configurations : 

--------------------------------------------------------------------------------
  Species    Type    Atomic    Atomic    Charge       Radii (Angs)     Library
                     Number     Mass       (e)     Cova   Ionic  VDW   Symbol
--------------------------------------------------------------------------------
    Cu       Core       29      63.55     0.0000   1.520  0.000  1.540          
--------------------------------------------------------------------------------


  Lattice summation method               =    Ewald
  Accuracy factor for lattice sums       =    8.000


  Time limit = Infinity

  Maximum range for interatomic potentials =    100000.000000 Angstroms

  General interatomic potentials :

--------------------------------------------------------------------------------
Atom  Types   Potential         A         B         C         D     Cutoffs(Ang)
  1     2                                                            Min    Max 
--------------------------------------------------------------------------------
Cu   c Cu   c Many-body      0.00      0.00     0.00     0.00       0.000 12.000
Cu   c Cu   c Lennard  9  6 0.129E+04  0.00     0.00      0.00      0.000 12.000
--------------------------------------------------------------------------------

  Embedded Atom Model Densities :

--------------------------------------------------------------------------------
  Atom(s)       Functional Form          A          B          C         n      
--------------------------------------------------------------------------------
  Cu   c        Power Law            527.6      0.000      0.000         6
--------------------------------------------------------------------------------


  Embedded Atom Model alloy parameters :

--------------------------------------------------------------------------------
  Atom(s)                          Scale factor 
--------------------------------------------------------------------------------
  Cu    c                            1.000000
--------------------------------------------------------------------------------

  Embedded Atom Model functional = Square Root

--------------------------------------------------------------------------------
  Atom                     A     
--------------------------------------------------------------------------------
  Cu    c               1.000000
--------------------------------------------------------------------------------


********************************************************************************
*  Output for configuration   1                                                *
********************************************************************************


  Components of energy : 

--------------------------------------------------------------------------------
  Interatomic potentials     =          55.98881777 eV
  Many-body potentials       =        -167.68263802 eV
  Monopole - monopole (real) =           0.00000000 eV
  Monopole - monopole (recip)=           0.00000000 eV
  Monopole - monopole (total)=           0.00000000 eV
--------------------------------------------------------------------------------
  Total lattice energy       =        -111.69382025 eV
--------------------------------------------------------------------------------
  Total lattice energy       =          -10776.7463 kJ/(mole unit cells)
--------------------------------------------------------------------------------


  Elastic Constant Matrix: (Units=GPa)

-------------------------------------------------------------------------------
  Indices      1         2         3         4         5         6    
-------------------------------------------------------------------------------
       1    169.4248  129.9784  129.9784   -0.0000   -0.0000   -0.0000
       2    129.9784  169.4248  129.9784   -0.0000   -0.0000   -0.0000
       3    129.9784  129.9784  169.4248   -0.0000   -0.0000   -0.0000
       4     -0.0000   -0.0000   -0.0000   58.4752    0.0000   -0.0000
       5     -0.0000   -0.0000   -0.0000    0.0000   58.4752   -0.0000
       6     -0.0000   -0.0000   -0.0000   -0.0000   -0.0000   58.4752
-------------------------------------------------------------------------------


  Elastic Compliance Matrix: (Units=1/GPa)

-------------------------------------------------------------------------------
  Indices      1         2         3         4         5         6    
-------------------------------------------------------------------------------
       1    0.017677 -0.007674 -0.007674 -0.000000  0.000000  0.000000
       2   -0.007674  0.017677 -0.007674  0.000000 -0.000000 -0.000000
       3   -0.007674 -0.007674  0.017677 -0.000000 -0.000000 -0.000000
       4   -0.000000  0.000000 -0.000000  0.017101 -0.000000  0.000000
       5    0.000000 -0.000000 -0.000000 -0.000000  0.017101  0.000000
       6    0.000000 -0.000000 -0.000000  0.000000  0.000000  0.017101
-------------------------------------------------------------------------------

 Mechanical properties :

-------------------------------------------------------------------------------
  Convention :                    Reuss         Voigt         Hill
-------------------------------------------------------------------------------
  Bulk  Modulus (GPa)     =     143.12721     143.12721     143.12721
  Shear Modulus (GPa)     =      32.74242      42.97441      37.85841
-------------------------------------------------------------------------------
  Velocity S-wave (km/s)  =       6.04088       6.92070       6.49570
  Velocity P-wave (km/s)  =      14.42828      14.94592      14.68938
-------------------------------------------------------------------------------
  Compressibility (1/GPa) =    0.00698679
-------------------------------------------------------------------------------
  Stress axis :                     x             y             z
-------------------------------------------------------------------------------
  Youngs Moduli (GPa)     =      56.57114      56.57114      56.57114
-------------------------------------------------------------------------------
  Poissons Ratio (x)      =                     0.43412       0.43412
  Poissons Ratio (y)      =       0.43412                     0.43412
  Poissons Ratio (z)      =       0.43412       0.43412
-------------------------------------------------------------------------------


  Piezoelectric Strain Matrix: (Units=C/m**2)

-------------------------------------------------------------------------------
  Indices      1         2         3         4         5         6    
-------------------------------------------------------------------------------
       x    -0.00000  -0.00000  -0.00000  -0.00000  -0.00000  -0.00000
       y    -0.00000  -0.00000  -0.00000  -0.00000  -0.00000  -0.00000
       z    -0.00000  -0.00000  -0.00000  -0.00000  -0.00000  -0.00000
-------------------------------------------------------------------------------


  Piezoelectric Stress Matrix: (Units=10**-11 C/N)

-------------------------------------------------------------------------------
  Indices      1         2         3         4         5         6    
-------------------------------------------------------------------------------
       x     0.00000   0.00000   0.00000   0.00000   0.00000   0.00000
       y     0.00000   0.00000   0.00000   0.00000   0.00000   0.00000
       z     0.00000   0.00000   0.00000   0.00000   0.00000   0.00000
-------------------------------------------------------------------------------


  Static dielectric constant tensor : 

-------------------------------------------------------------------------------
              x         y         z
-------------------------------------------------------------------------------
       x     1.00000   0.00000   0.00000
       y     0.00000   1.00000   0.00000
       z     0.00000   0.00000   1.00000
--------------------------------------------------------------------------------

  Static refractive indices : 

-------------------------------------------------------------------------------
    1 =    1.00000      2 =    1.00000      3 =    1.00000
-------------------------------------------------------------------------------


  Phonon Calculation : 

  Number of k points for this configuration =    4

--------------------------------------------------------------------------------
  K point   1 =   0.250000  0.250000  0.250000  Weight =    0.250
--------------------------------------------------------------------------------

  Frequencies (cm-1) [NB: Negative implies an imaginary mode]:

   37.14   37.14   75.45   75.45   75.45   78.55   78.55   78.55   83.63
   83.63   83.63   89.59   89.59   94.76  106.34  106.34  106.34  110.47
  110.47  110.47  110.47  110.47  110.47  111.20  111.20  111.20  116.69
  116.69  116.69  119.07  119.07  119.07  122.10  122.10  122.10  127.66
  127.66  127.66  138.24  138.24  138.24  138.24  138.24  138.24  143.14
  143.14  143.14  145.80  145.80  145.80  145.80  145.80  145.80  153.17
  153.17  153.17  155.64  155.64  155.64  167.74  167.74  167.74  174.71
  174.71  174.71  174.71  174.71  174.71  185.43  185.43  185.43  195.44
  195.44  195.44  203.76  203.76  203.76  203.76  203.76  203.76  204.00
  204.00  204.00  204.00  204.00  204.00  205.58  205.58  205.58  210.45
  216.41  216.41  216.41  218.89  218.89  218.89


--------------------------------------------------------------------------------
  K point   2 =   0.250000  0.250000  0.750000  Weight =    0.250
--------------------------------------------------------------------------------

  Frequencies (cm-1) [NB: Negative implies an imaginary mode]:

   37.14   37.14   75.45   75.45   75.45   78.55   78.55   78.55   83.63
   83.63   83.63   89.59   89.59   94.76  106.34  106.34  106.34  110.47
  110.47  110.47  110.47  110.47  110.47  111.20  111.20  111.20  116.69
  116.69  116.69  119.07  119.07  119.07  122.10  122.10  122.10  127.66
  127.66  127.66  138.24  138.24  138.24  138.24  138.24  138.24  143.14
  143.14  143.14  145.80  145.80  145.80  145.80  145.80  145.80  153.17
  153.17  153.17  155.64  155.64  155.64  167.74  167.74  167.74  174.71
  174.71  174.71  174.71  174.71  174.71  185.43  185.43  185.43  195.44
  195.44  195.44  203.76  203.76  203.76  203.76  203.76  203.76  204.00
  204.00  204.00  204.00  204.00  204.00  205.58  205.58  205.58  210.45
  216.41  216.41  216.41  218.89  218.89  218.89


--------------------------------------------------------------------------------
  K point   3 =   0.250000  0.750000  0.250000  Weight =    0.250
--------------------------------------------------------------------------------

  Frequencies (cm-1) [NB: Negative implies an imaginary mode]:

   37.14   37.14   75.45   75.45   75.45   78.55   78.55   78.55   83.63
   83.63   83.63   89.59   89.59   94.76  106.34  106.34  106.34  110.47
  110.47  110.47  110.47  110.47  110.47  111.20  111.20  111.20  116.69
  116.69  116.69  119.07  119.07  119.07  122.10  122.10  122.10  127.66
  127.66  127.66  138.24  138.24  138.24  138.24  138.24  138.24  143.14
  143.14  143.14  145.80  145.80  145.80  145.80  145.80  145.80  153.17
  153.17  153.17  155.64  155.64  155.64  167.74  167.74  167.74  174.71
  174.71  174.71  174.71  174.71  174.71  185.43  185.43  185.43  195.44
  195.44  195.44  203.76  203.76  203.76  203.76  203.76  203.76  204.00
  204.00  204.00  204.00  204.00  204.00  205.58  205.58  205.58  210.45
  216.41  216.41  216.41  218.89  218.89  218.89


--------------------------------------------------------------------------------
  K point   4 =   0.250000  0.750000  0.750000  Weight =    0.250
--------------------------------------------------------------------------------

  Frequencies (cm-1) [NB: Negative implies an imaginary mode]:

   37.14   37.14   75.45   75.45   75.45   78.55   78.55   78.55   83.63
   83.63   83.63   89.59   89.59   94.76  106.34  106.34  106.34  110.47
  110.47  110.47  110.47  110.47  110.47  111.20  111.20  111.20  116.69
  116.69  116.69  119.07  119.07  119.07  122.10  122.10  122.10  127.66
  127.66  127.66  138.24  138.24  138.24  138.24  138.24  138.24  143.14
  143.14  143.14  145.80  145.80  145.80  145.80  145.80  145.80  153.17
  153.17  153.17  155.64  155.64  155.64  167.74  167.74  167.74  174.71
  174.71  174.71  174.71  174.71  174.71  185.43  185.43  185.43  195.44
  195.44  195.44  203.76  203.76  203.76  203.76  203.76  203.76  204.00
  204.00  204.00  204.00  204.00  204.00  205.58  205.58  205.58  210.45
  216.41  216.41  216.41  218.89  218.89  218.89


--------------------------------------------------------------------------------
  Phonon properties (per mole of unit cells): Temperature =      0.000 K
--------------------------------------------------------------------------------
  Zero point energy            =        0.878242 eV
--------------------------------------------------------------------------------

  Phonon density of states : 

--------------------------------------------------------------------------------
 Frequency (cm-1) Density of States                                             
--------------------------------------------------------------------------------
    0.00000 |                                                              0.000
    4.00000 |                                                              0.000
    8.00000 |                                                              0.000
   12.00000 |                                                              0.000
   16.00000 |                                                              0.000
   20.00000 |                                                              0.000
   24.00000 |                                                              0.000
   28.00000 |                                                              0.000
   32.00000 |                                                              0.000
   36.00000 |**********                                                    0.021
   40.00000 |                                                              0.000
   44.00000 |                                                              0.000
   48.00000 |                                                              0.000
   52.00000 |                                                              0.000
   56.00000 |                                                              0.000
   60.00000 |                                                              0.000
   64.00000 |                                                              0.000
   68.00000 |                                                              0.000
   72.00000 |***************                                               0.031
   76.00000 |***************                                               0.031
   80.00000 |***************                                               0.031
   84.00000 |                                                              0.000
   88.00000 |**********                                                    0.021
   92.00000 |*****                                                         0.010
   96.00000 |                                                              0.000
  100.00000 |                                                              0.000
  104.00000 |***************                                               0.031
  108.00000 |*********************************************                 0.094
  112.00000 |                                                              0.000
  116.00000 |******************************                                0.062
  120.00000 |***************                                               0.031
  124.00000 |***************                                               0.031
  128.00000 |                                                              0.000
  132.00000 |                                                              0.000
  136.00000 |******************************                                0.062
  140.00000 |***************                                               0.031
  144.00000 |******************************                                0.062
  148.00000 |                                                              0.000
  152.00000 |******************************                                0.062
  156.00000 |                                                              0.000
  160.00000 |                                                              0.000
  164.00000 |***************                                               0.031
  168.00000 |                                                              0.000
  172.00000 |******************************                                0.062
  176.00000 |                                                              0.000
  180.00000 |                                                              0.000
  184.00000 |***************                                               0.031
  188.00000 |                                                              0.000
  192.00000 |***************                                               0.031
  196.00000 |                                                              0.000
  200.00000 |************************************************************  0.125
  204.00000 |***************                                               0.031
  208.00000 |*****                                                         0.010
  212.00000 |                                                              0.000
  216.00000 |******************************                                0.062
  220.00000 |                                                              0.000
  224.00000 |                                                              0.000
  228.00000 |                                                              0.000
  232.00000 |                                                              0.000
  236.00000 |                                                              0.000
  240.00000 |                                                              0.000
  244.00000 |                                                              0.000
  248.00000 |                                                              0.000
  252.00000 |                                                              0.000
--------------------------------------------------------------------------------



  Time to end of properties =     239.7261 seconds


  Peak dynamic memory used =       0.69 MB 


  Timing analysis for GULP :

--------------------------------------------------------------------------------
  Task / Subroutine                                          Time (Seconds)
--------------------------------------------------------------------------------
  Calculation of real space energy and derivatives                0.0744
  Calculation of many-body energy and derivatives               239.4840
--------------------------------------------------------------------------------
  Total CPU time                                                239.7261
--------------------------------------------------------------------------------


  Job Finished at 18:03.47 11th January    2010                               

