********************************************************************************
*                       GENERAL UTILITY LATTICE PROGRAM                        *
*                                 Julian Gale                                  *
*                      Nanochemistry Research Institute                        *
*             Curtin University of Technology, Western Australia               *
********************************************************************************
* Version = 3.4.2 * Last modified =   7th January 2008                         *
********************************************************************************
*  single       - perform a single point run                                   *
*  phonon       - calculate phonons for final geometry                         *
*  eigenvectors - output phonon eigenvectors                                   *
*  noksymmetry  - do not use Brillouin zone symmetry when generating k points  *
********************************************************************************

  Job Started  at 10:40.29 12th January    2010                               

  Number of CPUs =     1


  Total number of configurations input =   1

********************************************************************************
*  Input for Configuration =   1                                               *
********************************************************************************

  Formula = Cu32                                                        

  Number of irreducible atoms/shells =      32


  Total number atoms/shells =      32

  Dimensionality = 3               :  Bulk   



  Supercell dimensions :  x =   2  y =   2  z =   2

  Cartesian lattice vectors (Angstroms) :

        7.220000    0.000000    0.000000
        0.000000    7.220000    0.000000
        0.000000    0.000000    7.220000

  Cell parameters (Angstroms/Degrees):

  a =       7.2200    alpha =  90.0000
  b =       7.2200    beta  =  90.0000
  c =       7.2200    gamma =  90.0000

  Initial cell volume =         376.367048 Angs**3

  Shrinking factors =      2     2     2

  Temperature of configuration =  0.000     K 

  Pressure of configuration =         0.000 GPa 

  Fractional coordinates of asymmetric unit :

--------------------------------------------------------------------------------
   No.  Atomic       x           y          z         Charge      Occupancy
        Label      (Frac)      (Frac)     (Frac)        (e)         (Frac)  
--------------------------------------------------------------------------------
      1 Cu    c    0.000000    0.000000    0.000000      0.0000    1.000000    
      2 Cu    c    0.000000    0.000000    0.500000      0.0000    1.000000    
      3 Cu    c    0.000000    0.500000    0.000000      0.0000    1.000000    
      4 Cu    c    0.000000    0.500000    0.500000      0.0000    1.000000    
      5 Cu    c    0.500000    0.000000    0.000000      0.0000    1.000000    
      6 Cu    c    0.500000    0.000000    0.500000      0.0000    1.000000    
      7 Cu    c    0.500000    0.500000    0.000000      0.0000    1.000000    
      8 Cu    c    0.500000    0.500000    0.500000      0.0000    1.000000    
      9 Cu    c    0.250000    0.250000    0.000000      0.0000    1.000000    
     10 Cu    c    0.250000    0.250000    0.500000      0.0000    1.000000    
     11 Cu    c    0.250000    0.750000    0.000000      0.0000    1.000000    
     12 Cu    c    0.250000    0.750000    0.500000      0.0000    1.000000    
     13 Cu    c    0.750000    0.250000    0.000000      0.0000    1.000000    
     14 Cu    c    0.750000    0.250000    0.500000      0.0000    1.000000    
     15 Cu    c    0.750000    0.750000    0.000000      0.0000    1.000000    
     16 Cu    c    0.750000    0.750000    0.500000      0.0000    1.000000    
     17 Cu    c    0.250000    0.000000    0.250000      0.0000    1.000000    
     18 Cu    c    0.250000    0.000000    0.750000      0.0000    1.000000    
     19 Cu    c    0.250000    0.500000    0.250000      0.0000    1.000000    
     20 Cu    c    0.250000    0.500000    0.750000      0.0000    1.000000    
     21 Cu    c    0.750000    0.000000    0.250000      0.0000    1.000000    
     22 Cu    c    0.750000    0.000000    0.750000      0.0000    1.000000    
     23 Cu    c    0.750000    0.500000    0.250000      0.0000    1.000000    
     24 Cu    c    0.750000    0.500000    0.750000      0.0000    1.000000    
     25 Cu    c    0.000000    0.250000    0.250000      0.0000    1.000000    
     26 Cu    c    0.000000    0.250000    0.750000      0.0000    1.000000    
     27 Cu    c    0.000000    0.750000    0.250000      0.0000    1.000000    
     28 Cu    c    0.000000    0.750000    0.750000      0.0000    1.000000    
     29 Cu    c    0.500000    0.250000    0.250000      0.0000    1.000000    
     30 Cu    c    0.500000    0.250000    0.750000      0.0000    1.000000    
     31 Cu    c    0.500000    0.750000    0.250000      0.0000    1.000000    
     32 Cu    c    0.500000    0.750000    0.750000      0.0000    1.000000    
--------------------------------------------------------------------------------


  Brillouin zone sampling points :

--------------------------------------------------------------------------------
  Point number          x          y          z            Weight
--------------------------------------------------------------------------------
        1           0.250000   0.250000   0.250000         0.1250
        2           0.250000   0.250000   0.750000         0.1250
        3           0.250000   0.750000   0.250000         0.1250
        4           0.250000   0.750000   0.750000         0.1250
        5           0.750000   0.250000   0.250000         0.1250
        6           0.750000   0.250000   0.750000         0.1250
        7           0.750000   0.750000   0.250000         0.1250
        8           0.750000   0.750000   0.750000         0.1250
--------------------------------------------------------------------------------


********************************************************************************
*  General input information                                                   *
********************************************************************************

  Species output for all configurations : 

--------------------------------------------------------------------------------
  Species    Type    Atomic    Atomic    Charge       Radii (Angs)     Library
                     Number     Mass       (e)     Cova   Ionic  VDW   Symbol
--------------------------------------------------------------------------------
    Cu       Core       29      63.55     0.0000   1.520  0.000  1.540          
--------------------------------------------------------------------------------


  Lattice summation method               =    Ewald
  Accuracy factor for lattice sums       =    8.000


  Time limit = Infinity

  Maximum range for interatomic potentials =    100000.000000 Angstroms

  General interatomic potentials :

--------------------------------------------------------------------------------
Atom  Types   Potential         A         B         C         D     Cutoffs(Ang)
  1     2                                                            Min    Max 
--------------------------------------------------------------------------------
Cu   c Cu   c Many-body      0.00      0.00     0.00     0.00       0.000 12.000
Cu   c Cu   c Lennard  9  6 0.129E+04  0.00     0.00      0.00      0.000 12.000
--------------------------------------------------------------------------------

  Embedded Atom Model Densities :

--------------------------------------------------------------------------------
  Atom(s)       Functional Form          A          B          C         n      
--------------------------------------------------------------------------------
  Cu   c        Power Law            527.6      0.000      0.000         6
--------------------------------------------------------------------------------


  Embedded Atom Model alloy parameters :

--------------------------------------------------------------------------------
  Atom(s)                          Scale factor 
--------------------------------------------------------------------------------
  Cu    c                            1.000000
--------------------------------------------------------------------------------

  Embedded Atom Model functional = Square Root

--------------------------------------------------------------------------------
  Atom                     A     
--------------------------------------------------------------------------------
  Cu    c               1.000000
--------------------------------------------------------------------------------


********************************************************************************
*  Output for configuration   1                                                *
********************************************************************************


  Components of energy : 

--------------------------------------------------------------------------------
  Interatomic potentials     =          55.98881777 eV
  Many-body potentials       =        -167.68263802 eV
  Monopole - monopole (real) =           0.00000000 eV
  Monopole - monopole (recip)=           0.00000000 eV
  Monopole - monopole (total)=           0.00000000 eV
--------------------------------------------------------------------------------
  Total lattice energy       =        -111.69382025 eV
--------------------------------------------------------------------------------
  Total lattice energy       =          -10776.7463 kJ/(mole unit cells)
--------------------------------------------------------------------------------


  Elastic Constant Matrix: (Units=GPa)

-------------------------------------------------------------------------------
  Indices      1         2         3         4         5         6    
-------------------------------------------------------------------------------
       1    169.4248  129.9784  129.9784   -0.0000   -0.0000   -0.0000
       2    129.9784  169.4248  129.9784   -0.0000   -0.0000   -0.0000
       3    129.9784  129.9784  169.4248   -0.0000   -0.0000   -0.0000
       4     -0.0000   -0.0000   -0.0000   58.4752    0.0000   -0.0000
       5     -0.0000   -0.0000   -0.0000    0.0000   58.4752   -0.0000
       6     -0.0000   -0.0000   -0.0000   -0.0000   -0.0000   58.4752
-------------------------------------------------------------------------------


  Elastic Compliance Matrix: (Units=1/GPa)

-------------------------------------------------------------------------------
  Indices      1         2         3         4         5         6    
-------------------------------------------------------------------------------
       1    0.017677 -0.007674 -0.007674 -0.000000  0.000000  0.000000
       2   -0.007674  0.017677 -0.007674  0.000000 -0.000000 -0.000000
       3   -0.007674 -0.007674  0.017677 -0.000000 -0.000000 -0.000000
       4   -0.000000  0.000000 -0.000000  0.017101 -0.000000  0.000000
       5    0.000000 -0.000000 -0.000000 -0.000000  0.017101  0.000000
       6    0.000000 -0.000000 -0.000000  0.000000  0.000000  0.017101
-------------------------------------------------------------------------------

 Mechanical properties :

-------------------------------------------------------------------------------
  Convention :                    Reuss         Voigt         Hill
-------------------------------------------------------------------------------
  Bulk  Modulus (GPa)     =     143.12721     143.12721     143.12721
  Shear Modulus (GPa)     =      32.74242      42.97441      37.85841
-------------------------------------------------------------------------------
  Velocity S-wave (km/s)  =       6.04088       6.92070       6.49570
  Velocity P-wave (km/s)  =      14.42828      14.94592      14.68938
-------------------------------------------------------------------------------
  Compressibility (1/GPa) =    0.00698679
-------------------------------------------------------------------------------
  Stress axis :                     x             y             z
-------------------------------------------------------------------------------
  Youngs Moduli (GPa)     =      56.57114      56.57114      56.57114
-------------------------------------------------------------------------------
  Poissons Ratio (x)      =                     0.43412       0.43412
  Poissons Ratio (y)      =       0.43412                     0.43412
  Poissons Ratio (z)      =       0.43412       0.43412
-------------------------------------------------------------------------------


  Piezoelectric Strain Matrix: (Units=C/m**2)

-------------------------------------------------------------------------------
  Indices      1         2         3         4         5         6    
-------------------------------------------------------------------------------
       x    -0.00000  -0.00000  -0.00000  -0.00000  -0.00000  -0.00000
       y    -0.00000  -0.00000  -0.00000  -0.00000  -0.00000  -0.00000
       z    -0.00000  -0.00000  -0.00000  -0.00000  -0.00000  -0.00000
-------------------------------------------------------------------------------


  Piezoelectric Stress Matrix: (Units=10**-11 C/N)

-------------------------------------------------------------------------------
  Indices      1         2         3         4         5         6    
-------------------------------------------------------------------------------
       x     0.00000   0.00000   0.00000   0.00000   0.00000   0.00000
       y     0.00000   0.00000   0.00000   0.00000   0.00000   0.00000
       z     0.00000   0.00000   0.00000   0.00000   0.00000   0.00000
-------------------------------------------------------------------------------


  Static dielectric constant tensor : 

-------------------------------------------------------------------------------
              x         y         z
-------------------------------------------------------------------------------
       x     1.00000   0.00000   0.00000
       y     0.00000   1.00000   0.00000
       z     0.00000   0.00000   1.00000
--------------------------------------------------------------------------------

  Static refractive indices : 

-------------------------------------------------------------------------------
    1 =    1.00000      2 =    1.00000      3 =    1.00000
-------------------------------------------------------------------------------


  Phonon Calculation : 

  Number of k points for this configuration =    8

--------------------------------------------------------------------------------
  K point   1 =   0.250000  0.250000  0.250000  Weight =    0.125
--------------------------------------------------------------------------------

 Frequencies (cm-1) and Eigenvectors : 

 Frequency      37.1399             37.1399             75.4521
 IR Intensity    0.0000              0.0000              0.0000
    in X         0.0000              0.0000              0.0000
    in Y         0.0000              0.0000              0.0000
    in Z         0.0000              0.0000              0.0000
 Raman Intsty    0.0000              0.0000              0.0000

                Real    Imaginary   Real    Imaginary   Real    Imaginary

     1 x       0.142798 -0.000756 -0.021007 -0.000300 -0.001314 -0.105145
     1 y      -0.089589  0.000756 -0.113165  0.000300 -0.065315 -0.003584
     1 z      -0.053209 -0.000000  0.134172 -0.000000  0.066629  0.108729
     2 x       0.142798 -0.000756 -0.021007 -0.000300  0.002413  0.108586
     2 y      -0.089589  0.000756 -0.113165  0.000300  0.064216  0.000143
     2 z      -0.053209 -0.000000  0.134172  0.000000 -0.066629 -0.108729
     3 x       0.142798 -0.000756 -0.021007 -0.000300 -0.002413 -0.108586
     3 y      -0.089589  0.000756 -0.113165  0.000300  0.065315  0.003584
     3 z      -0.053209 -0.000000  0.134172  0.000000 -0.062902  0.105002
     4 x       0.142798 -0.000756 -0.021007 -0.000300  0.001314  0.105145
     4 y      -0.089589  0.000756 -0.113165  0.000300 -0.064216 -0.000143
     4 z      -0.053209 -0.000000  0.134172 -0.000000  0.062902 -0.105002
     5 x       0.142798 -0.000756 -0.021007 -0.000300  0.001314  0.105145
     5 y      -0.089589  0.000756 -0.113165  0.000300 -0.064216 -0.000143
     5 z      -0.053209  0.000000  0.134172  0.000000  0.062902 -0.105002
     6 x       0.142798 -0.000756 -0.021007 -0.000300 -0.002413 -0.108586
     6 y      -0.089589  0.000756 -0.113165  0.000300  0.065315  0.003584
     6 z      -0.053209 -0.000000  0.134172 -0.000000 -0.062902  0.105002
     7 x       0.142798 -0.000756 -0.021007 -0.000300  0.002413  0.108586
     7 y      -0.089589  0.000756 -0.113165  0.000300  0.064216  0.000143
     7 z      -0.053209 -0.000000  0.134172  0.000000 -0.066629 -0.108729
     8 x       0.142798 -0.000756 -0.021007 -0.000300 -0.001314 -0.105145
     8 y      -0.089589  0.000756 -0.113165  0.000300 -0.065315 -0.003584
     8 z      -0.053209 -0.000000  0.134172 -0.000000  0.066629  0.108729
     9 x       0.142798 -0.000756 -0.021007 -0.000300  0.106316 -0.003584
     9 y      -0.089589  0.000756 -0.113165  0.000300  0.002413 -0.063045
     9 z      -0.053209 -0.000000  0.134172  0.000000 -0.108729  0.066629
    10 x       0.142798 -0.000756 -0.021007 -0.000300 -0.107415  0.000143
    10 y      -0.089589  0.000756 -0.113165  0.000300 -0.001314  0.066486
    10 z      -0.053209 -0.000000  0.134172 -0.000000  0.108729 -0.066629
    11 x       0.142798 -0.000756 -0.021007 -0.000300  0.107415 -0.000143
    11 y      -0.089589  0.000756 -0.113165  0.000300 -0.002413  0.063045
    11 z      -0.053209 -0.000000  0.134172  0.000000 -0.105002 -0.062902
    12 x       0.142798 -0.000756 -0.021007 -0.000300 -0.106316  0.003584
    12 y      -0.089589  0.000756 -0.113165  0.000300  0.001314 -0.066486
    12 z      -0.053209 -0.000000  0.134172  0.000000  0.105002  0.062902
    13 x       0.142798 -0.000756 -0.021007 -0.000300 -0.106316  0.003584
    13 y      -0.089589  0.000756 -0.113165  0.000300  0.001314 -0.066486
    13 z      -0.053209 -0.000000  0.134172  0.000000  0.105002  0.062902
    14 x       0.142798 -0.000756 -0.021007 -0.000300  0.107415 -0.000143
    14 y      -0.089589  0.000756 -0.113165  0.000300 -0.002413  0.063045
    14 z      -0.053209 -0.000000  0.134172 -0.000000 -0.105002 -0.062902
    15 x       0.142798 -0.000756 -0.021007 -0.000300 -0.107415  0.000143
    15 y      -0.089589  0.000756 -0.113165  0.000300 -0.001314  0.066486
    15 z      -0.053209  0.000000  0.134172  0.000000  0.108729 -0.066629
    16 x       0.142798 -0.000756 -0.021007 -0.000300  0.106316 -0.003584
    16 y      -0.089589  0.000756 -0.113165  0.000300  0.002413 -0.063045
    16 z      -0.053209 -0.000000  0.134172 -0.000000 -0.108729  0.066629
    17 x       0.142798 -0.000756 -0.021007 -0.000300  0.000143  0.107415
    17 y      -0.089589  0.000756 -0.113165  0.000300  0.003584 -0.065315
    17 z      -0.053209 -0.000000  0.134172  0.000000 -0.003727 -0.042100
    18 x       0.142798 -0.000756 -0.021007 -0.000300 -0.003584 -0.106316
    18 y      -0.089589  0.000756 -0.113165  0.000300 -0.000143  0.064216
    18 z      -0.053209 -0.000000  0.134172 -0.000000  0.003727  0.042100
    19 x       0.142798 -0.000756 -0.021007 -0.000300  0.003584  0.106316
    19 y      -0.089589  0.000756 -0.113165  0.000300 -0.003584  0.065315
    19 z      -0.053209 -0.000000  0.134172  0.000000 -0.000000 -0.171631
    20 x       0.142798 -0.000756 -0.021007 -0.000300 -0.000143 -0.107415
    20 y      -0.089589  0.000756 -0.113165  0.000300  0.000143 -0.064216
    20 z      -0.053209 -0.000000  0.134172 -0.000000 -0.000000  0.171631
    21 x       0.142798 -0.000756 -0.021007 -0.000300 -0.000143 -0.107415
    21 y      -0.089589  0.000756 -0.113165  0.000300  0.000143 -0.064216
    21 z      -0.053209 -0.000000  0.134172 -0.000000  0.000000  0.171631
    22 x       0.142798 -0.000756 -0.021007 -0.000300  0.003584  0.106316
    22 y      -0.089589  0.000756 -0.113165  0.000300 -0.003584  0.065315
    22 z      -0.053209  0.000000  0.134172 -0.000000 -0.000000 -0.171631
    23 x       0.142798 -0.000756 -0.021007 -0.000300 -0.003584 -0.106316
    23 y      -0.089589  0.000756 -0.113165  0.000300 -0.000143  0.064216
    23 z      -0.053209 -0.000000  0.134172 -0.000000  0.003727  0.042100
    24 x       0.142798 -0.000756 -0.021007 -0.000300  0.000143  0.107415
    24 y      -0.089589  0.000756 -0.113165  0.000300  0.003584 -0.065315
    24 z      -0.053209 -0.000000  0.134172 -0.000000 -0.003727 -0.042100
    25 x       0.142798 -0.000756 -0.021007 -0.000300  0.105145 -0.001314
    25 y      -0.089589  0.000756 -0.113165  0.000300  0.066486  0.001314
    25 z      -0.053209 -0.000000  0.134172 -0.000000 -0.171631  0.000000
    26 x       0.142798 -0.000756 -0.021007 -0.000300 -0.108586  0.002413
    26 y      -0.089589  0.000756 -0.113165  0.000300 -0.063045 -0.002413
    26 z      -0.053209 -0.000000  0.134172 -0.000000  0.171631 -0.000000
    27 x       0.142798 -0.000756 -0.021007 -0.000300  0.108586 -0.002413
    27 y      -0.089589  0.000756 -0.113165  0.000300 -0.066486 -0.001314
    27 z      -0.053209  0.000000  0.134172  0.000000 -0.042100  0.003727
    28 x       0.142798 -0.000756 -0.021007 -0.000300 -0.105145  0.001314
    28 y      -0.089589  0.000756 -0.113165  0.000300  0.063045  0.002413
    28 z      -0.053209 -0.000000  0.134172 -0.000000  0.042100 -0.003727
    29 x       0.142798 -0.000756 -0.021007 -0.000300 -0.105145  0.001314
    29 y      -0.089589  0.000756 -0.113165  0.000300  0.063045  0.002413
    29 z      -0.053209 -0.000000  0.134172  0.000000  0.042100 -0.003727
    30 x       0.142798 -0.000756 -0.021007 -0.000300  0.108586 -0.002413
    30 y      -0.089589  0.000756 -0.113165  0.000300 -0.066486 -0.001314
    30 z      -0.053209 -0.000000  0.134172 -0.000000 -0.042100  0.003727
    31 x       0.142798 -0.000756 -0.021007 -0.000300 -0.108586  0.002413
    31 y      -0.089589  0.000756 -0.113165  0.000300 -0.063045 -0.002413
    31 z      -0.053209  0.000000  0.134172  0.000000  0.171631 -0.000000
    32 x       0.142798 -0.000756 -0.021007 -0.000300  0.105145 -0.001314
    32 y      -0.089589  0.000756 -0.113165  0.000300  0.066486  0.001314
    32 z      -0.053209  0.000000  0.134172 -0.000000 -0.171631  0.000000


 Frequency      75.4521             75.4521             78.5465
 IR Intensity    0.0000              0.0000              0.0000
    in X         0.0000              0.0000              0.0000
    in Y         0.0000              0.0000              0.0000
    in Z         0.0000              0.0000              0.0000
 Raman Intsty    0.0000              0.0000              0.0000

                Real    Imaginary   Real    Imaginary   Real    Imaginary

     1 x       0.117599 -0.049572  0.005961 -0.062212 -0.051334  0.126688
     1 y      -0.120704  0.060412  0.093139 -0.008785 -0.054306  0.123526
     1 z       0.003105 -0.010840 -0.099100  0.070997 -0.054161  0.123033
     2 x       0.105810 -0.059462  0.020005  0.065738 -0.047698 -0.008135
     2 y      -0.102705  0.048622 -0.119105  0.005259 -0.050671 -0.011297
     2 z      -0.003105  0.010840  0.099100 -0.070997 -0.050725 -0.004382
     3 x      -0.105810  0.059462 -0.020005 -0.065738 -0.052988  0.009818
     3 y       0.120704 -0.060412 -0.093139  0.008785 -0.055870  0.013078
     3 z      -0.014894  0.000950  0.113144  0.056953 -0.055816  0.006163
     4 x      -0.117599  0.049572 -0.005961  0.062212 -0.049353 -0.125005
     4 y       0.102705 -0.048622  0.119105 -0.005259 -0.052235 -0.121745
     4 z       0.014894 -0.000950 -0.113144 -0.056953 -0.052380 -0.121252
     5 x      -0.117599  0.049572 -0.005961  0.062212  0.049353  0.125005
     5 y       0.102705 -0.048622  0.119105 -0.005259  0.052235  0.121745
     5 z       0.014894 -0.000950 -0.113144 -0.056953  0.052380  0.121252
     6 x      -0.105810  0.059462 -0.020005 -0.065738  0.052988 -0.009818
     6 y       0.120704 -0.060412 -0.093139  0.008785  0.055870 -0.013078
     6 z      -0.014894  0.000950  0.113144  0.056953  0.055816 -0.006163
     7 x       0.105810 -0.059462  0.020005  0.065738  0.047698  0.008135
     7 y      -0.102705  0.048622 -0.119105  0.005259  0.050671  0.011297
     7 z      -0.003105  0.010840  0.099100 -0.070997  0.050725  0.004382
     8 x       0.117599 -0.049572  0.005961 -0.062212  0.051334 -0.126688
     8 y      -0.120704  0.060412  0.093139 -0.008785  0.054306 -0.123526
     8 z       0.003105 -0.010840 -0.099100  0.070997  0.054161 -0.123033
     9 x      -0.116650  0.060412  0.050992 -0.008785 -0.061094  0.017895
     9 y       0.105810 -0.063516  0.020005  0.107885 -0.057932  0.014923
     9 z       0.010840  0.003105 -0.070997 -0.099100 -0.061043  0.011264
    10 x      -0.106760  0.048622 -0.076958  0.005259 -0.057459 -0.116928
    10 y       0.117599 -0.045518  0.005961 -0.104359 -0.054297 -0.119900
    10 z      -0.010840 -0.003105  0.070997  0.099100 -0.057608 -0.116151
    11 x       0.106760 -0.048622  0.076958 -0.005259  0.055776  0.016241
    11 y      -0.105810  0.063516 -0.020005 -0.107885  0.052516  0.013359
    11 z      -0.000950 -0.014894 -0.056953  0.113144  0.055826  0.009610
    12 x       0.116650 -0.060412 -0.050992  0.008785  0.059411 -0.118582
    12 y      -0.117599  0.045518 -0.005961  0.104359  0.056151 -0.121464
    12 z       0.000950  0.014894  0.056953 -0.113144  0.059262 -0.117805
    13 x       0.116650 -0.060412 -0.050992  0.008785 -0.059411  0.118582
    13 y      -0.117599  0.045518 -0.005961  0.104359 -0.056151  0.121464
    13 z       0.000950  0.014894  0.056953 -0.113144 -0.059262  0.117805
    14 x       0.106760 -0.048622  0.076958 -0.005259 -0.055776 -0.016241
    14 y      -0.105810  0.063516 -0.020005 -0.107885 -0.052516 -0.013359
    14 z      -0.000950 -0.014894 -0.056953  0.113144 -0.055826 -0.009610
    15 x      -0.106760  0.048622 -0.076958  0.005259  0.057459  0.116928
    15 y       0.117599 -0.045518  0.005961 -0.104359  0.054297  0.119900
    15 z      -0.010840 -0.003105  0.070997  0.099100  0.057608  0.116151
    16 x      -0.116650  0.060412  0.050992 -0.008785  0.061094 -0.017895
    16 y       0.105810 -0.063516  0.020005  0.107885  0.057932 -0.014923
    16 z       0.010840  0.003105 -0.070997 -0.099100  0.061043 -0.011264
    17 x       0.048622  0.106760  0.005259  0.076958 -0.067426  0.006274
    17 y      -0.060412 -0.120704  0.008785  0.093139 -0.067520  0.000136
    17 z       0.011789  0.013944 -0.014044 -0.170097 -0.063771  0.003447
    18 x       0.060412  0.116650 -0.008785 -0.050992  0.067397  0.009909
    18 y      -0.048622 -0.102705 -0.005259 -0.119105  0.067303  0.003771
    18 z      -0.011789 -0.013944  0.014044  0.170097  0.063644  0.006882
    19 x      -0.060412 -0.116650  0.008785  0.050992 -0.069080 -0.110596
    19 y       0.060412  0.120704 -0.008785 -0.093139 -0.069084 -0.110312
    19 z      -0.000000 -0.004054  0.000000  0.042147 -0.065425 -0.113423
    20 x      -0.048622 -0.106760 -0.005259 -0.076958  0.065743 -0.106960
    20 y       0.048622  0.102705  0.005259  0.119105  0.065739 -0.106677
    20 z       0.000000  0.004054  0.000000 -0.042147  0.061990 -0.109987
    21 x      -0.048622 -0.106760 -0.005259 -0.076958 -0.065743  0.106960
    21 y       0.048622  0.102705  0.005259  0.119105 -0.065739  0.106677
    21 z       0.000000  0.004054  0.000000 -0.042147 -0.061990  0.109987
    22 x      -0.060412 -0.116650  0.008785  0.050992  0.069080  0.110596
    22 y       0.060412  0.120704 -0.008785 -0.093139  0.069084  0.110312
    22 z      -0.000000 -0.004054 -0.000000  0.042147  0.065425  0.113423
    23 x       0.060412  0.116650 -0.008785 -0.050992 -0.067397 -0.009909
    23 y      -0.048622 -0.102705 -0.005259 -0.119105 -0.067303 -0.003771
    23 z      -0.011789 -0.013944  0.014044  0.170097 -0.063644 -0.006882
    24 x       0.048622  0.106760  0.005259  0.076958  0.067426 -0.006274
    24 y      -0.060412 -0.120704  0.008785  0.093139  0.067520 -0.000136
    24 z       0.011789  0.013944 -0.014044 -0.170097  0.063771 -0.003447
    25 x       0.049572  0.117599  0.062212  0.005961 -0.176190 -0.000149
    25 y      -0.045518 -0.117599 -0.104359 -0.005961 -0.175906 -0.000145
    25 z      -0.004054  0.000000  0.042147  0.000000 -0.175413  0.000000
    26 x       0.059462  0.105810 -0.065738  0.020005 -0.041367  0.003487
    26 y      -0.063516 -0.105810  0.107885 -0.020005 -0.041083  0.003490
    26 z       0.004054 -0.000000 -0.042147 -0.000000 -0.047998  0.003436
    27 x      -0.059462 -0.105810  0.065738 -0.020005 -0.059320 -0.001803
    27 y       0.045518  0.117599  0.104359  0.005961 -0.065458 -0.001709
    27 z       0.013944 -0.011789 -0.170097  0.014044 -0.058543 -0.001655
    28 x      -0.049572 -0.117599 -0.062212 -0.005961  0.075503  0.001832
    28 y       0.063516  0.105810 -0.107885  0.020005  0.069365  0.001926
    28 z      -0.013944  0.011789  0.170097 -0.014044  0.068872  0.001781
    29 x      -0.049572 -0.117599 -0.062212 -0.005961 -0.075503 -0.001832
    29 y       0.063516  0.105810 -0.107885  0.020005 -0.069365 -0.001926
    29 z      -0.013944  0.011789  0.170097 -0.014044 -0.068872 -0.001781
    30 x      -0.059462 -0.105810  0.065738 -0.020005  0.059320  0.001803
    30 y       0.045518  0.117599  0.104359  0.005961  0.065458  0.001709
    30 z       0.013944 -0.011789 -0.170097  0.014044  0.058543  0.001655
    31 x       0.059462  0.105810 -0.065738  0.020005  0.041367 -0.003487
    31 y      -0.063516 -0.105810  0.107885 -0.020005  0.041083 -0.003490
    31 z       0.004054 -0.000000 -0.042147  0.000000  0.047998 -0.003436
    32 x       0.049572  0.117599  0.062212  0.005961  0.176190  0.000149
    32 y      -0.045518 -0.117599 -0.104359 -0.005961  0.175906  0.000145
    32 z      -0.004054  0.000000  0.042147 -0.000000  0.175413 -0.000000


 Frequency      78.5465             78.5465             83.6289
 IR Intensity    0.0000              0.0000              0.0000
    in X         0.0000              0.0000              0.0000
    in Y         0.0000              0.0000              0.0000
    in Z         0.0000              0.0000              0.0000
 Raman Intsty    0.0000              0.0000              0.0000

                Real    Imaginary   Real    Imaginary   Real    Imaginary

     1 x       0.000586  0.004109  0.080786  0.077598  0.002519  0.122084
     1 y       0.000831  0.008577  0.085396  0.075335 -0.041534 -0.000379
     1 z       0.001817  0.000630  0.086041  0.075978  0.039015 -0.121706
     2 x       0.026739 -0.137546  0.095294  0.013922 -0.007271  0.116576
     2 y       0.026984 -0.133079  0.099904  0.011660 -0.031744  0.005130
     2 z       0.026533 -0.133242  0.099753  0.015801  0.039015 -0.121706
     3 x      -0.009131  0.151721  0.071789 -0.009466  0.007271 -0.116576
     3 y      -0.008352  0.148077  0.076894 -0.006945 -0.041534 -0.000379
     3 z      -0.007901  0.148241  0.077045 -0.011086  0.034264  0.116955
     4 x       0.017022  0.010065  0.086298 -0.073142 -0.002519 -0.122084
     4 y       0.017801  0.006422  0.091402 -0.070621 -0.031744  0.005130
     4 z       0.016815  0.014369  0.090756 -0.071263  0.034264  0.116955
     5 x      -0.017022 -0.010065 -0.086298  0.073142  0.002519  0.122084
     5 y      -0.017801 -0.006422 -0.091402  0.070621  0.031744 -0.005130
     5 z      -0.016815 -0.014369 -0.090756  0.071263 -0.034264 -0.116955
     6 x       0.009131 -0.151721 -0.071789  0.009466 -0.007271  0.116576
     6 y       0.008352 -0.148077 -0.076894  0.006945  0.041534  0.000379
     6 z       0.007901 -0.148241 -0.077045  0.011086 -0.034264 -0.116955
     7 x      -0.026739  0.137546 -0.095294 -0.013922  0.007271 -0.116576
     7 y      -0.026984  0.133079 -0.099904 -0.011660  0.031744 -0.005130
     7 z      -0.026533  0.133242 -0.099753 -0.015801 -0.039015  0.121706
     8 x      -0.000586 -0.004109 -0.080786 -0.077598 -0.002519 -0.122084
     8 y      -0.000831 -0.008577 -0.085396 -0.075335  0.041534  0.000379
     8 z      -0.001817 -0.000630 -0.086041 -0.075978 -0.039015  0.121706
     9 x       0.053642  0.084491 -0.053014  0.119878 -0.114435  0.000379
     9 y       0.049174  0.084735 -0.050752  0.124488 -0.007271 -0.039393
     9 z       0.053948  0.081111 -0.052745  0.122985  0.121706  0.039015
    10 x       0.079795 -0.057165 -0.038506  0.056202 -0.124225 -0.005130
    10 y       0.075327 -0.056920 -0.036243  0.060812  0.002519 -0.033885
    10 z       0.078664 -0.052761 -0.039034  0.062809  0.121706  0.039015
    11 x      -0.093969  0.074773  0.034050  0.110881  0.124225  0.005130
    11 y      -0.090326  0.075552  0.031529  0.115986 -0.007271 -0.039393
    11 z      -0.093663  0.071393  0.034319  0.113989 -0.116955  0.034264
    12 x      -0.067816 -0.066883  0.048558  0.047206  0.114435 -0.000379
    12 y      -0.064173 -0.066104  0.046037  0.052310  0.002519 -0.033885
    12 z      -0.068947 -0.062479  0.048030  0.053812 -0.116955  0.034264
    13 x       0.067816  0.066883 -0.048558 -0.047206 -0.114435  0.000379
    13 y       0.064173  0.066104 -0.046037 -0.052310 -0.002519  0.033885
    13 z       0.068947  0.062479 -0.048030 -0.053812  0.116955 -0.034264
    14 x       0.093969 -0.074773 -0.034050 -0.110881 -0.124225 -0.005130
    14 y       0.090326 -0.075552 -0.031529 -0.115986  0.007271  0.039393
    14 z       0.093663 -0.071393 -0.034319 -0.113989  0.116955 -0.034264
    15 x      -0.079795  0.057165  0.038506 -0.056202  0.124225  0.005130
    15 y      -0.075327  0.056920  0.036243 -0.060812 -0.002519  0.033885
    15 z      -0.078664  0.052761  0.039034 -0.062809 -0.121706 -0.039015
    16 x      -0.053642 -0.084491  0.053014 -0.119878  0.114435 -0.000379
    16 y      -0.049174 -0.084735  0.050752 -0.124488  0.007271  0.039393
    16 z      -0.053948 -0.081111  0.052745 -0.122985 -0.121706 -0.039015
    17 x      -0.073056 -0.078078 -0.029568  0.119820 -0.005130  0.124225
    17 y      -0.073735 -0.073511 -0.029944  0.122285  0.000379 -0.041534
    17 z      -0.069577 -0.076848 -0.027948  0.125075  0.004751 -0.082691
    18 x       0.068599 -0.051925  0.034108  0.134328  0.000379  0.114435
    18 y       0.067920 -0.047358  0.033731  0.136793 -0.005130 -0.031744
    18 z       0.064295 -0.052132  0.032229  0.138787  0.004751 -0.082691
    19 x      -0.082774  0.069533 -0.038564  0.032755 -0.000379 -0.114435
    19 y      -0.082919  0.065990 -0.038446  0.040005  0.000379 -0.041534
    19 z      -0.079294  0.070763 -0.036944  0.038011  0.000000  0.155970
    20 x       0.058882  0.095686  0.025112  0.047264  0.005130 -0.124225
    20 y       0.058737  0.092143  0.025229  0.054513 -0.005130 -0.031744
    20 z       0.054578  0.095479  0.023233  0.051722 -0.000000  0.155970
    21 x      -0.058882 -0.095686 -0.025112 -0.047264 -0.005130  0.124225
    21 y      -0.058737 -0.092143 -0.025229 -0.054513  0.005130  0.031744
    21 z      -0.054578 -0.095479 -0.023233 -0.051722 -0.000000 -0.155970
    22 x       0.082774 -0.069533  0.038564 -0.032755  0.000379  0.114435
    22 y       0.082919 -0.065990  0.038446 -0.040005 -0.000379  0.041534
    22 z       0.079294 -0.070763  0.036944 -0.038011 -0.000000 -0.155970
    23 x      -0.068599  0.051925 -0.034108 -0.134328 -0.000379 -0.114435
    23 y      -0.067920  0.047358 -0.033731 -0.136793  0.005130  0.031744
    23 z      -0.064295  0.052132 -0.032229 -0.138787 -0.004751  0.082691
    24 x       0.073056  0.078078  0.029568 -0.119820  0.005130 -0.124225
    24 y       0.073735  0.073511  0.029944 -0.122285 -0.000379  0.041534
    24 z       0.069577  0.076848  0.027948 -0.125075 -0.004751  0.082691
    25 x       0.011782 -0.001131  0.008171 -0.000528 -0.122084  0.002519
    25 y       0.008238 -0.000986  0.015421 -0.000646 -0.033885 -0.002519
    25 z       0.016185 -0.000000  0.014778 -0.000000  0.155970 -0.000000
    26 x       0.153437  0.025022  0.071847  0.013980 -0.116576 -0.007271
    26 y       0.149894  0.025168  0.079097  0.013863 -0.039393  0.007271
    26 z       0.150057  0.024716  0.074955  0.013711  0.155970 -0.000000
    27 x      -0.135829 -0.010848  0.095236 -0.009524  0.116576  0.007271
    27 y      -0.131262 -0.010169  0.097701 -0.009148 -0.033885 -0.002519
    27 z      -0.131426 -0.009717  0.101843 -0.008996 -0.082691 -0.004751
    28 x       0.005826  0.015305  0.158912  0.004984  0.122084 -0.002519
    28 y       0.010394  0.015984  0.161377  0.005361 -0.039393  0.007271
    28 z       0.002446  0.014999  0.162020  0.004715 -0.082691 -0.004751
    29 x      -0.005826 -0.015305 -0.158912 -0.004984 -0.122084  0.002519
    29 y      -0.010394 -0.015984 -0.161377 -0.005361  0.039393 -0.007271
    29 z      -0.002446 -0.014999 -0.162020 -0.004715  0.082691  0.004751
    30 x       0.135829  0.010848 -0.095236  0.009524 -0.116576 -0.007271
    30 y       0.131262  0.010169 -0.097701  0.009148  0.033885  0.002519
    30 z       0.131426  0.009717 -0.101843  0.008996  0.082691  0.004751
    31 x      -0.153437 -0.025022 -0.071847 -0.013980  0.116576  0.007271
    31 y      -0.149894 -0.025168 -0.079097 -0.013863  0.039393 -0.007271
    31 z      -0.150057 -0.024716 -0.074955 -0.013711 -0.155970  0.000000
    32 x      -0.011782  0.001131 -0.008171  0.000528  0.122084 -0.002519
    32 y      -0.008238  0.000986 -0.015421  0.000646  0.033885  0.002519
    32 z      -0.016185  0.000000 -0.014778  0.000000 -0.155970  0.000000


 Frequency      83.6289             83.6289             89.5890
 IR Intensity    0.0000              0.0000              0.0000
    in X         0.0000              0.0000              0.0000
    in Y         0.0000              0.0000              0.0000
    in Z         0.0000              0.0000              0.0000
 Raman Intsty    0.0000              0.0000              0.0000

                Real    Imaginary   Real    Imaginary   Real    Imaginary

     1 x       0.053773  0.112961 -0.002539  0.026092 -0.141536  0.007102
     1 y      -0.039124 -0.119328  0.116253  0.015494  0.094225 -0.007102
     1 z      -0.014649  0.006367 -0.113715 -0.041586  0.047312 -0.000000
     2 x      -0.043958 -0.115879 -0.007782  0.046758  0.141536 -0.007102
     2 y       0.058607  0.109512  0.121497 -0.005173 -0.094225  0.007102
     2 z      -0.014649  0.006367 -0.113715 -0.041586 -0.047312  0.000000
     3 x       0.043958  0.115879  0.007782 -0.046758  0.141536 -0.007102
     3 y      -0.039124 -0.119328  0.116253  0.015494 -0.094225  0.007102
     3 z      -0.004834  0.003449 -0.124036  0.031264 -0.047312  0.000000
     4 x      -0.053773 -0.112961  0.002539 -0.026092 -0.141536  0.007102
     4 y       0.058607  0.109512  0.121497 -0.005173  0.094225 -0.007102
     4 z      -0.004834  0.003449 -0.124036  0.031264  0.047312 -0.000000
     5 x       0.053773  0.112961 -0.002539  0.026092  0.141536 -0.007102
     5 y      -0.058607 -0.109512 -0.121497  0.005173 -0.094225  0.007102
     5 z       0.004834 -0.003449  0.124036 -0.031264 -0.047312  0.000000
     6 x      -0.043958 -0.115879 -0.007782  0.046758 -0.141536  0.007102
     6 y       0.039124  0.119328 -0.116253 -0.015494  0.094225 -0.007102
     6 z       0.004834 -0.003449  0.124036 -0.031264  0.047312 -0.000000
     7 x       0.043958  0.115879  0.007782 -0.046758 -0.141536  0.007102
     7 y      -0.058607 -0.109512 -0.121497  0.005173  0.094225 -0.007102
     7 z       0.014649 -0.006367  0.113715  0.041586  0.047312 -0.000000
     8 x      -0.053773 -0.112961  0.002539 -0.026092  0.141536 -0.007102
     8 y       0.039124  0.119328 -0.116253 -0.015494 -0.094225  0.007102
     8 z       0.014649 -0.006367  0.113715  0.041586 -0.047312  0.000000
     9 x       0.050324  0.119328 -0.033803 -0.015494  0.141536 -0.007102
     9 y      -0.043958 -0.104679 -0.007782  0.129208 -0.094225  0.007102
     9 z      -0.006367 -0.014649  0.041586 -0.113715 -0.047312  0.000000
    10 x      -0.047407 -0.109512 -0.039047  0.005173 -0.141536  0.007102
    10 y       0.053773  0.124162 -0.002539  0.108542  0.094225 -0.007102
    10 z      -0.006367 -0.014649  0.041586 -0.113715  0.047312 -0.000000
    11 x       0.047407  0.109512  0.039047 -0.005173 -0.141536  0.007102
    11 y      -0.043958 -0.104679 -0.007782  0.129208  0.094225 -0.007102
    11 z      -0.003449 -0.004834 -0.031264 -0.124036  0.047312 -0.000000
    12 x      -0.050324 -0.119328  0.033803  0.015494  0.141536 -0.007102
    12 y       0.053773  0.124162 -0.002539  0.108542 -0.094225  0.007102
    12 z      -0.003449 -0.004834 -0.031264 -0.124036 -0.047312  0.000000
    13 x       0.050324  0.119328 -0.033803 -0.015494 -0.141536  0.007102
    13 y      -0.053773 -0.124162  0.002539 -0.108542  0.094225 -0.007102
    13 z       0.003449  0.004834  0.031264  0.124036  0.047312 -0.000000
    14 x      -0.047407 -0.109512 -0.039047  0.005173  0.141536 -0.007102
    14 y       0.043958  0.104679  0.007782 -0.129208 -0.094225  0.007102
    14 z       0.003449  0.004834  0.031264  0.124036 -0.047312  0.000000
    15 x       0.047407  0.109512  0.039047 -0.005173  0.141536 -0.007102
    15 y      -0.053773 -0.124162  0.002539 -0.108542 -0.094225  0.007102
    15 z       0.006367  0.014649 -0.041586  0.113715 -0.047312  0.000000
    16 x      -0.050324 -0.119328  0.033803  0.015494 -0.141536  0.007102
    16 y       0.043958  0.104679  0.007782 -0.129208  0.094225 -0.007102
    16 z       0.006367  0.014649 -0.041586  0.113715  0.047312  0.000000
    17 x      -0.109512  0.047407  0.005173  0.039047  0.141536 -0.007102
    17 y       0.119328 -0.039124 -0.015494  0.116253 -0.094225  0.007102
    17 z      -0.009816 -0.008283  0.010321 -0.155300 -0.047312  0.000000
    18 x       0.119328 -0.050324 -0.015494  0.033803 -0.141536  0.007102
    18 y      -0.109512  0.058607  0.005173  0.121497  0.094225 -0.007102
    18 z      -0.009816 -0.008283  0.010321 -0.155300  0.047312 -0.000000
    19 x      -0.119328  0.050324  0.015494 -0.033803 -0.141536  0.007102
    19 y       0.119328 -0.039124 -0.015494  0.116253  0.094225 -0.007102
    19 z       0.000000 -0.011200  0.000000 -0.082450  0.047312 -0.000000
    20 x       0.109512 -0.047407 -0.005173 -0.039047  0.141536 -0.007102
    20 y      -0.109512  0.058607  0.005173  0.121497 -0.094225  0.007102
    20 z      -0.000000 -0.011200 -0.000000 -0.082450 -0.047312  0.000000
    21 x      -0.109512  0.047407  0.005173  0.039047 -0.141536  0.007102
    21 y       0.109512 -0.058607 -0.005173 -0.121497  0.094225 -0.007102
    21 z       0.000000  0.011200  0.000000  0.082450  0.047312 -0.000000
    22 x       0.119328 -0.050324 -0.015494  0.033803  0.141536 -0.007102
    22 y      -0.119328  0.039124  0.015494 -0.116253 -0.094225  0.007102
    22 z      -0.000000  0.011200 -0.000000  0.082450 -0.047312  0.000000
    23 x      -0.119328  0.050324  0.015494 -0.033803  0.141536 -0.007102
    23 y       0.109512 -0.058607 -0.005173 -0.121497 -0.094225  0.007102
    23 z       0.009816  0.008283 -0.010321  0.155300 -0.047312  0.000000
    24 x       0.109512 -0.047407 -0.005173 -0.039047 -0.141536  0.007102
    24 y      -0.119328  0.039124  0.015494 -0.116253  0.094225 -0.007102
    24 z       0.009816  0.008283 -0.010321  0.155300  0.047312 -0.000000
    25 x      -0.112961  0.053773 -0.026092 -0.002539  0.141536 -0.007102
    25 y       0.124162 -0.053773  0.108542  0.002539 -0.094225  0.007102
    25 z      -0.011200  0.000000 -0.082450  0.000000 -0.047312  0.000000
    26 x       0.115879 -0.043958 -0.046758 -0.007782 -0.141536  0.007102
    26 y      -0.104679  0.043958  0.129208  0.007782  0.094225 -0.007102
    26 z      -0.011200  0.000000 -0.082450 -0.000000  0.047312 -0.000000
    27 x      -0.115879  0.043958  0.046758  0.007782 -0.141536  0.007102
    27 y       0.124162 -0.053773  0.108542  0.002539  0.094225 -0.007102
    27 z      -0.008283  0.009816 -0.155300 -0.010321  0.047312 -0.000000
    28 x       0.112961 -0.053773  0.026092  0.002539  0.141536 -0.007102
    28 y      -0.104679  0.043958  0.129208  0.007782 -0.094225  0.007102
    28 z      -0.008283  0.009816 -0.155300 -0.010321 -0.047312  0.000000
    29 x      -0.112961  0.053773 -0.026092 -0.002539 -0.141536  0.007102
    29 y       0.104679 -0.043958 -0.129208 -0.007782  0.094225 -0.007102
    29 z       0.008283 -0.009816  0.155300  0.010321  0.047312 -0.000000
    30 x       0.115879 -0.043958 -0.046758 -0.007782  0.141536 -0.007102
    30 y      -0.124162  0.053773 -0.108542 -0.002539 -0.094225  0.007102
    30 z       0.008283 -0.009816  0.155300  0.010321 -0.047312  0.000000
    31 x      -0.115879  0.043958  0.046758  0.007782  0.141536 -0.007102
    31 y       0.104679 -0.043958 -0.129208 -0.007782 -0.094225  0.007102
    31 z       0.011200 -0.000000  0.082450 -0.000000 -0.047312  0.000000
    32 x       0.112961 -0.053773  0.026092  0.002539 -0.141536  0.007102
    32 y      -0.124162  0.053773 -0.108542 -0.002539  0.094225 -0.007102
    32 z       0.011200 -0.000000  0.082450 -0.000000  0.047312 -0.000000


 Frequency      89.5890             94.7646            106.3417
 IR Intensity    0.0000              0.0000              0.0000
    in X         0.0000              0.0000              0.0000
    in Y         0.0000              0.0000              0.0000
    in Z         0.0000              0.0000              0.0000
 Raman Intsty    0.0000              0.0000              0.0000

                Real    Imaginary   Real    Imaginary   Real    Imaginary

     1 x       0.027283  0.002464  0.102062 -0.000000 -0.068859  0.095935
     1 y       0.109081 -0.002464  0.102062  0.000000 -0.007137 -0.120965
     1 z      -0.136363  0.000000  0.102062  0.000000  0.075996  0.025030
     2 x      -0.027283 -0.002464  0.102062  0.000000  0.068859 -0.095935
     2 y      -0.109081  0.002464  0.102062  0.000000  0.007137  0.120965
     2 z       0.136363  0.000000  0.102062  0.000000 -0.075996 -0.025030
     3 x      -0.027283 -0.002464  0.102062  0.000000  0.068859 -0.095935
     3 y      -0.109081  0.002464  0.102062 -0.000000  0.007137  0.120965
     3 z       0.136363 -0.000000  0.102062  0.000000 -0.075996 -0.025030
     4 x       0.027283  0.002464  0.102062  0.000000 -0.068859  0.095935
     4 y       0.109081 -0.002464  0.102062  0.000000 -0.007137 -0.120965
     4 z      -0.136363  0.000000  0.102062 -0.000000  0.075996  0.025030
     5 x      -0.027283 -0.002464  0.102062  0.000000  0.068859 -0.095935
     5 y      -0.109081  0.002464  0.102062 -0.000000  0.007137  0.120965
     5 z       0.136363 -0.000000  0.102062  0.000000 -0.075996 -0.025030
     6 x       0.027283  0.002464  0.102062  0.000000 -0.068859  0.095935
     6 y       0.109081 -0.002464  0.102062  0.000000 -0.007137 -0.120965
     6 z      -0.136363  0.000000  0.102062  0.000000  0.075996  0.025030
     7 x       0.027283  0.002464  0.102062 -0.000000 -0.068859  0.095935
     7 y       0.109081 -0.002464  0.102062  0.000000 -0.007137 -0.120965
     7 z      -0.136363  0.000000  0.102062  0.000000  0.075996  0.025030
     8 x      -0.027283 -0.002464  0.102062  0.000000  0.068859 -0.095935
     8 y      -0.109081  0.002464  0.102062  0.000000  0.007137  0.120965
     8 z       0.136363 -0.000000  0.102062  0.000000 -0.075996 -0.025030
     9 x      -0.027283 -0.002464  0.102062  0.000000 -0.033784 -0.120965
     9 y      -0.109081  0.002464  0.102062 -0.000000 -0.042212  0.095935
     9 z       0.136363 -0.000000  0.102062  0.000000  0.075996  0.025030
    10 x       0.027283  0.002464  0.102062  0.000000  0.033784  0.120965
    10 y       0.109081 -0.002464  0.102062  0.000000  0.042212 -0.095935
    10 z      -0.136363  0.000000  0.102062 -0.000000 -0.075996 -0.025030
    11 x       0.027283  0.002464  0.102062 -0.000000  0.033784  0.120965
    11 y       0.109081 -0.002464  0.102062  0.000000  0.042212 -0.095935
    11 z      -0.136363  0.000000  0.102062  0.000000 -0.075996 -0.025030
    12 x      -0.027283 -0.002464  0.102062  0.000000 -0.033784 -0.120965
    12 y      -0.109081  0.002464  0.102062 -0.000000 -0.042212  0.095935
    12 z       0.136363 -0.000000  0.102062  0.000000  0.075996  0.025030
    13 x       0.027283  0.002464  0.102062  0.000000  0.033784  0.120965
    13 y       0.109081 -0.002464  0.102062  0.000000  0.042212 -0.095935
    13 z      -0.136363  0.000000  0.102062  0.000000 -0.075996 -0.025030
    14 x      -0.027283 -0.002464  0.102062  0.000000 -0.033784 -0.120965
    14 y      -0.109081  0.002464  0.102062  0.000000 -0.042212  0.095935
    14 z       0.136363 -0.000000  0.102062  0.000000  0.075996  0.025030
    15 x      -0.027283 -0.002464  0.102062  0.000000 -0.033784 -0.120965
    15 y      -0.109081  0.002464  0.102062 -0.000000 -0.042212  0.095935
    15 z       0.136363 -0.000000  0.102062  0.000000  0.075996  0.025030
    16 x       0.027283  0.002464  0.102062  0.000000  0.033784  0.120965
    16 y       0.109081 -0.002464  0.102062  0.000000  0.042212 -0.095935
    16 z      -0.136363  0.000000  0.102062 -0.000000 -0.075996 -0.025030
    17 x      -0.027283 -0.002464  0.102062  0.000000  0.033784  0.120965
    17 y      -0.109081  0.002464  0.102062 -0.000000 -0.007137 -0.120965
    17 z       0.136363 -0.000000  0.102062  0.000000 -0.026647 -0.000000
    18 x       0.027283  0.002464  0.102062  0.000000 -0.033784 -0.120965
    18 y       0.109081 -0.002464  0.102062  0.000000  0.007137  0.120965
    18 z      -0.136363  0.000000  0.102062  0.000000  0.026647  0.000000
    19 x       0.027283  0.002464  0.102062  0.000000 -0.033784 -0.120965
    19 y       0.109081 -0.002464  0.102062  0.000000  0.007137  0.120965
    19 z      -0.136363  0.000000  0.102062 -0.000000  0.026647 -0.000000
    20 x      -0.027283 -0.002464  0.102062  0.000000  0.033784  0.120965
    20 y      -0.109081  0.002464  0.102062 -0.000000 -0.007137 -0.120965
    20 z       0.136363  0.000000  0.102062  0.000000 -0.026647  0.000000
    21 x       0.027283  0.002464  0.102062  0.000000 -0.033784 -0.120965
    21 y       0.109081 -0.002464  0.102062  0.000000  0.007137  0.120965
    21 z      -0.136363  0.000000  0.102062  0.000000  0.026647  0.000000
    22 x      -0.027283 -0.002464  0.102062  0.000000  0.033784  0.120965
    22 y      -0.109081  0.002464  0.102062  0.000000 -0.007137 -0.120965
    22 z       0.136363 -0.000000  0.102062  0.000000 -0.026647 -0.000000
    23 x      -0.027283 -0.002464  0.102062 -0.000000  0.033784  0.120965
    23 y      -0.109081  0.002464  0.102062 -0.000000 -0.007137 -0.120965
    23 z       0.136363 -0.000000  0.102062  0.000000 -0.026647  0.000000
    24 x       0.027283  0.002464  0.102062  0.000000 -0.033784 -0.120965
    24 y       0.109081 -0.002464  0.102062  0.000000  0.007137  0.120965
    24 z      -0.136363  0.000000  0.102062 -0.000000  0.026647 -0.000000
    25 x      -0.027283 -0.002464  0.102062  0.000000 -0.068859  0.095935
    25 y      -0.109081  0.002464  0.102062  0.000000  0.042212 -0.095935
    25 z       0.136363 -0.000000  0.102062  0.000000  0.026647  0.000000
    26 x       0.027283  0.002464  0.102062  0.000000  0.068859 -0.095935
    26 y       0.109081 -0.002464  0.102062  0.000000 -0.042212  0.095935
    26 z      -0.136363  0.000000  0.102062 -0.000000 -0.026647 -0.000000
    27 x       0.027283  0.002464  0.102062 -0.000000  0.068859 -0.095935
    27 y       0.109081 -0.002464  0.102062  0.000000 -0.042212  0.095935
    27 z      -0.136363  0.000000  0.102062  0.000000 -0.026647  0.000000
    28 x      -0.027283 -0.002464  0.102062  0.000000 -0.068859  0.095935
    28 y      -0.109081  0.002464  0.102062 -0.000000  0.042212 -0.095935
    28 z       0.136363  0.000000  0.102062  0.000000  0.026647 -0.000000
    29 x       0.027283  0.002464  0.102062  0.000000  0.068859 -0.095935
    29 y       0.109081 -0.002464  0.102062  0.000000 -0.042212  0.095935
    29 z      -0.136363  0.000000  0.102062 -0.000000 -0.026647 -0.000000
    30 x      -0.027283 -0.002464  0.102062  0.000000 -0.068859  0.095935
    30 y      -0.109081  0.002464  0.102062  0.000000  0.042212 -0.095935
    30 z       0.136363 -0.000000  0.102062  0.000000  0.026647  0.000000
    31 x      -0.027283 -0.002464  0.102062  0.000000 -0.068859  0.095935
    31 y      -0.109081  0.002464  0.102062  0.000000  0.042212 -0.095935
    31 z       0.136363 -0.000000  0.102062  0.000000  0.026647 -0.000000
    32 x       0.027283  0.002464  0.102062  0.000000  0.068859 -0.095935
    32 y       0.109081 -0.002464  0.102062  0.000000 -0.042212  0.095935
    32 z      -0.136363  0.000000  0.102062 -0.000000 -0.026647  0.000000


 Frequency     106.3417            106.3417            110.4665
 IR Intensity    0.0000              0.0000              0.0000
    in X         0.0000              0.0000              0.0000
    in Y         0.0000              0.0000              0.0000
    in Z         0.0000              0.0000              0.0000
 Raman Intsty    0.0000              0.0000              0.0000

                Real    Imaginary   Real    Imaginary   Real    Imaginary

     1 x       0.110382  0.038454  0.042377  0.042966  0.012321  0.145816
     1 y      -0.049026 -0.042458  0.102769 -0.042411  0.006800  0.023049
     1 z      -0.061356  0.004004 -0.145146 -0.000555 -0.012778  0.105073
     2 x      -0.110382 -0.038454 -0.042377 -0.042966  0.028345 -0.158098
     2 y       0.049026  0.042458 -0.102769  0.042411  0.011216 -0.035092
     2 z       0.061356 -0.004004  0.145146  0.000555  0.019105 -0.107695
     3 x      -0.110382 -0.038454 -0.042377 -0.042966 -0.026806  0.155178
     3 y       0.049026  0.042458 -0.102769  0.042411 -0.010353  0.029976
     3 z       0.061356 -0.004004  0.145146  0.000555 -0.005691  0.085736
     4 x       0.110382  0.038454  0.042377  0.042966 -0.013860 -0.142897
     4 y      -0.049026 -0.042458  0.102769 -0.042411 -0.007663 -0.017933
     4 z      -0.061356  0.004004 -0.145146 -0.000555 -0.000636 -0.083113
     5 x      -0.110382 -0.038454 -0.042377 -0.042966 -0.013860 -0.142897
     5 y       0.049026  0.042458 -0.102769  0.042411 -0.007663 -0.017933
     5 z       0.061356 -0.004004  0.145146  0.000555 -0.000636 -0.083113
     6 x       0.110382  0.038454  0.042377  0.042966 -0.026806  0.155178
     6 y      -0.049026 -0.042458  0.102769 -0.042411 -0.010353  0.029976
     6 z      -0.061356  0.004004 -0.145146 -0.000555 -0.005691  0.085736
     7 x       0.110382  0.038454  0.042377  0.042966  0.028345 -0.158098
     7 y      -0.049026 -0.042458  0.102769 -0.042411  0.011216 -0.035092
     7 z      -0.061356  0.004004 -0.145146 -0.000555  0.019105 -0.107695
     8 x      -0.110382 -0.038454 -0.042377 -0.042966  0.012321  0.145816
     8 y       0.049026  0.042458 -0.102769  0.042411  0.006800  0.023049
     8 z       0.061356 -0.004004  0.145146  0.000555 -0.012778  0.105073
     9 x       0.106500 -0.042458  0.023073 -0.042411 -0.117537 -0.001443
     9 y      -0.045144  0.038454  0.122073  0.042966  0.000359  0.006606
     9 z      -0.061356  0.004004 -0.145146 -0.000555 -0.058705  0.018280
    10 x      -0.106500  0.042458 -0.023073  0.042411  0.158203 -0.010838
    10 y       0.045144 -0.038454 -0.122073 -0.042966  0.017657 -0.018649
    10 z       0.061356 -0.004004  0.145146  0.000555  0.065032 -0.020903
    11 x      -0.106500  0.042458 -0.023073  0.042411 -0.165522  0.005384
    11 y       0.045144 -0.038454 -0.122073 -0.042966 -0.048240 -0.004875
    11 z       0.061356 -0.004004  0.145146  0.000555 -0.102333 -0.006163
    12 x       0.106500 -0.042458  0.023073 -0.042411  0.124856  0.006898
    12 y      -0.045144  0.038454  0.122073  0.042966  0.030224  0.016918
    12 z      -0.061356  0.004004 -0.145146 -0.000555  0.096006  0.008786
    13 x      -0.106500  0.042458 -0.023073  0.042411  0.124856  0.006898
    13 y       0.045144 -0.038454 -0.122073 -0.042966  0.030224  0.016918
    13 z       0.061356 -0.004004  0.145146  0.000555  0.096006  0.008786
    14 x       0.106500 -0.042458  0.023073 -0.042411 -0.165522  0.005384
    14 y      -0.045144  0.038454  0.122073  0.042966 -0.048240 -0.004875
    14 z      -0.061356  0.004004 -0.145146 -0.000555 -0.102333 -0.006163
    15 x       0.106500 -0.042458  0.023073 -0.042411  0.158203 -0.010838
    15 y      -0.045144  0.038454  0.122073  0.042966  0.017657 -0.018649
    15 z      -0.061356  0.004004 -0.145146 -0.000555  0.065032 -0.020903
    16 x      -0.106500  0.042458 -0.023073  0.042411 -0.117537 -0.001443
    16 y       0.045144 -0.038454 -0.122073 -0.042966  0.000359  0.006606
    16 z       0.061356 -0.004004  0.145146  0.000555 -0.058705  0.018280
    17 x      -0.106500  0.042458 -0.023073  0.042411 -0.009153  0.174232
    17 y      -0.049026 -0.042458  0.102769 -0.042411 -0.018337  0.033933
    17 z       0.155526  0.000000 -0.079696  0.000000 -0.027833  0.086792
    18 x       0.106500 -0.042458  0.023073 -0.042411  0.012651 -0.121307
    18 y       0.049026  0.042458 -0.102769  0.042411  0.015799  0.004432
    18 z      -0.155526  0.000000  0.079696 -0.000000  0.027937 -0.076950
    19 x       0.106500 -0.042458  0.023073 -0.042411 -0.005332  0.126762
    19 y       0.049026  0.042458 -0.102769  0.042411  0.014784  0.019092
    19 z      -0.155526 -0.000000  0.079696 -0.000000  0.009364  0.104016
    20 x      -0.106500  0.042458 -0.023073  0.042411  0.001834 -0.179687
    20 y      -0.049026 -0.042458  0.102769 -0.042411 -0.012246 -0.057457
    20 z       0.155526  0.000000 -0.079696  0.000000 -0.009468 -0.113859
    21 x       0.106500 -0.042458  0.023073 -0.042411  0.001834 -0.179687
    21 y       0.049026  0.042458 -0.102769  0.042411 -0.012246 -0.057457
    21 z      -0.155526 -0.000000  0.079696 -0.000000 -0.009468 -0.113859
    22 x      -0.106500  0.042458 -0.023073  0.042411 -0.005332  0.126762
    22 y      -0.049026 -0.042458  0.102769 -0.042411  0.014784  0.019092
    22 z       0.155526  0.000000 -0.079696 -0.000000  0.009364  0.104016
    23 x      -0.106500  0.042458 -0.023073  0.042411  0.012651 -0.121307
    23 y      -0.049026 -0.042458  0.102769 -0.042411  0.015799  0.004432
    23 z       0.155526  0.000000 -0.079696  0.000000  0.027937 -0.076950
    24 x       0.106500 -0.042458  0.023073 -0.042411 -0.009153  0.174232
    24 y       0.049026  0.042458 -0.102769  0.042411 -0.018337  0.033933
    24 z      -0.155526 -0.000000  0.079696 -0.000000 -0.027833  0.086792
    25 x       0.110382  0.038454  0.042377  0.042966  0.139011 -0.026973
    25 y       0.045144 -0.038454 -0.122073 -0.042966  0.024778 -0.017490
    25 z      -0.155526  0.000000  0.079696 -0.000000  0.073760 -0.000000
    26 x      -0.110382 -0.038454 -0.042377 -0.042966 -0.142509 -0.025952
    26 y      -0.045144  0.038454  0.122073  0.042966 -0.022241 -0.020875
    26 z       0.155526  0.000000 -0.079696  0.000000 -0.073863 -0.009843
    27 x      -0.110382 -0.038454 -0.042377 -0.042966  0.144048  0.023033
    27 y      -0.045144  0.038454  0.122073  0.042966  0.023103  0.015759
    27 z       0.155526  0.000000 -0.079696  0.000000  0.087278 -0.012117
    28 x       0.110382  0.038454  0.042377  0.042966 -0.140551  0.029892
    28 y       0.045144 -0.038454 -0.122073 -0.042966 -0.025641  0.022606
    28 z      -0.155526 -0.000000  0.079696 -0.000000 -0.087174  0.021960
    29 x      -0.110382 -0.038454 -0.042377 -0.042966 -0.140551  0.029892
    29 y      -0.045144  0.038454  0.122073  0.042966 -0.025641  0.022606
    29 z       0.155526 -0.000000 -0.079696 -0.000000 -0.087174  0.021960
    30 x       0.110382  0.038454  0.042377  0.042966  0.144048  0.023033
    30 y       0.045144 -0.038454 -0.122073 -0.042966  0.023103  0.015759
    30 z      -0.155526  0.000000  0.079696  0.000000  0.087278 -0.012117
    31 x       0.110382  0.038454  0.042377  0.042966 -0.142509 -0.025952
    31 y       0.045144 -0.038454 -0.122073 -0.042966 -0.022241 -0.020875
    31 z      -0.155526 -0.000000  0.079696  0.000000 -0.073863 -0.009843
    32 x      -0.110382 -0.038454 -0.042377 -0.042966  0.139011 -0.026973
    32 y      -0.045144  0.038454  0.122073  0.042966  0.024778 -0.017490
    32 z       0.155526 -0.000000 -0.079696  0.000000  0.073760 -0.000000


 Frequency     110.4665            110.4665            110.4665
 IR Intensity    0.0000              0.0000              0.0000
    in X         0.0000              0.0000              0.0000
    in Y         0.0000              0.0000              0.0000
    in Z         0.0000              0.0000              0.0000
 Raman Intsty    0.0000              0.0000              0.0000

                Real    Imaginary   Real    Imaginary   Real    Imaginary

     1 x      -0.159957 -0.036289 -0.005245  0.014257 -0.040027 -0.040648
     1 y      -0.099214 -0.056839 -0.033095 -0.001513  0.045202  0.016113
     1 z      -0.045562 -0.004142 -0.118914  0.103427 -0.037298 -0.004144
     2 x      -0.134107 -0.079436  0.056454 -0.046865  0.038341  0.038990
     2 y      -0.109015 -0.028465  0.070352 -0.050113 -0.015313 -0.017900
     2 z      -0.008594 -0.017533  0.128452 -0.112509  0.040339  0.003773
     3 x       0.134058  0.087830 -0.026817  0.034503 -0.056903 -0.061653
     3 y       0.094006  0.067973  0.022585  0.020845 -0.073058 -0.043987
     3 z       0.023154  0.055873  0.053489  0.027118 -0.124132 -0.152084
     4 x       0.160006  0.027895 -0.024392 -0.001895  0.058589  0.063312
     4 y       0.114223  0.017331 -0.059841  0.030780  0.043168  0.045774
     4 z       0.031002 -0.034198 -0.063028 -0.018036  0.121091  0.152456
     5 x       0.160006  0.027895 -0.024392 -0.001895  0.058589  0.063312
     5 y       0.114223  0.017331 -0.059841  0.030780  0.043168  0.045774
     5 z       0.031002 -0.034198 -0.063028 -0.018036  0.121091  0.152456
     6 x       0.134058  0.087830 -0.026817  0.034503 -0.056903 -0.061653
     6 y       0.094006  0.067973  0.022585  0.020845 -0.073058 -0.043987
     6 z       0.023154  0.055873  0.053489  0.027118 -0.124132 -0.152084
     7 x      -0.134107 -0.079436  0.056454 -0.046865  0.038341  0.038990
     7 y      -0.109015 -0.028465  0.070352 -0.050113 -0.015313 -0.017900
     7 z      -0.008594 -0.017533  0.128452 -0.112509  0.040339  0.003773
     8 x      -0.159957 -0.036289 -0.005245  0.014257 -0.040027 -0.040648
     8 y      -0.099214 -0.056839 -0.033095 -0.001513  0.045202  0.016113
     8 z      -0.045562 -0.004142 -0.118914  0.103427 -0.037298 -0.004144
     9 x      -0.152992 -0.057951  0.109085  0.030605 -0.020366  0.049131
     9 y      -0.098068 -0.013588  0.085837  0.054068  0.077272  0.028412
     9 z      -0.024133  0.018409  0.161961  0.141856  0.031267  0.074764
    10 x      -0.141071 -0.057774 -0.057875 -0.063213  0.018680 -0.050789
    10 y      -0.110161 -0.071716 -0.048581 -0.105694 -0.047382 -0.030199
    10 z      -0.030023 -0.040084 -0.152423 -0.150937 -0.028227 -0.075136
    11 x       0.140564  0.044925  0.033487  0.024535 -0.056236  0.048800
    11 y       0.098150  0.012071 -0.050297 -0.039570 -0.100706 -0.000383
    11 z       0.037327 -0.019449  0.025097 -0.062528 -0.172014  0.087269
    12 x       0.153500  0.070800 -0.084696  0.008072  0.057922 -0.047142
    12 y       0.110079  0.073232  0.013041  0.091196  0.070816  0.002171
    12 z       0.016829  0.041124 -0.034636  0.071610  0.168973 -0.086897
    13 x       0.153500  0.070800 -0.084696  0.008072  0.057922 -0.047142
    13 y       0.110079  0.073232  0.013041  0.091196  0.070816  0.002171
    13 z       0.016829  0.041124 -0.034636  0.071610  0.168973 -0.086897
    14 x       0.140564  0.044925  0.033487  0.024535 -0.056236  0.048800
    14 y       0.098150  0.012071 -0.050297 -0.039570 -0.100706 -0.000383
    14 z       0.037327 -0.019449  0.025097 -0.062528 -0.172014  0.087269
    15 x      -0.141071 -0.057774 -0.057875 -0.063213  0.018680 -0.050789
    15 y      -0.110161 -0.071716 -0.048581 -0.105694 -0.047382 -0.030199
    15 z      -0.030023 -0.040084 -0.152423 -0.150937 -0.028227 -0.075136
    16 x      -0.152992 -0.057951  0.109085  0.030605 -0.020366  0.049131
    16 y      -0.098068 -0.013588  0.085837  0.054068  0.077272  0.028412
    16 z      -0.024133  0.018409  0.161961  0.141856  0.031267  0.074764
    17 x       0.029919 -0.098299 -0.042163  0.024588 -0.067160 -0.082212
    17 y       0.009574 -0.079587 -0.079082 -0.054395 -0.088316 -0.062794
    17 z      -0.000943 -0.022551 -0.100508 -0.038429 -0.180864 -0.078908
    18 x       0.056325 -0.136990  0.014287  0.014505  0.067326  0.022079
    18 y       0.026793 -0.031077  0.030307  0.071538  0.087628 -0.004337
    18 z       0.014162 -0.014749  0.092243  0.044492  0.180807  0.065187
    19 x      -0.055818  0.149840  0.010101  0.024172 -0.029770 -0.020090
    19 y      -0.014782  0.090722  0.068571  0.073727  0.060460  0.034920
    19 z      -0.021466  0.074282  0.035083  0.168974  0.019434 -0.077320
    20 x      -0.030426  0.085449  0.017774 -0.063265  0.029604  0.080223
    20 y      -0.021584  0.019943 -0.019796 -0.090870 -0.059772  0.032211
    20 z       0.008247 -0.036982 -0.026818 -0.175037 -0.019377  0.091042
    21 x      -0.030426  0.085449  0.017774 -0.063265  0.029604  0.080223
    21 y      -0.021584  0.019943 -0.019796 -0.090870 -0.059772  0.032211
    21 z       0.008247 -0.036982 -0.026818 -0.175037 -0.019377  0.091042
    22 x      -0.055818  0.149840  0.010101  0.024172 -0.029770 -0.020090
    22 y      -0.014782  0.090722  0.068571  0.073727  0.060460  0.034920
    22 z      -0.021466  0.074282  0.035083  0.168974  0.019434 -0.077320
    23 x       0.056325 -0.136990  0.014287  0.014505  0.067326  0.022079
    23 y       0.026793 -0.031077  0.030307  0.071538  0.087628 -0.004337
    23 z       0.014162 -0.014749  0.092243  0.044492  0.180807  0.065187
    24 x       0.029919 -0.098299 -0.042163  0.024588 -0.067160 -0.082212
    24 y       0.009574 -0.079587 -0.079082 -0.054395 -0.088316 -0.062794
    24 z      -0.000943 -0.022551 -0.100508 -0.038429 -0.180864 -0.078908
    25 x      -0.036884  0.119961 -0.072166 -0.040935  0.047499 -0.007567
    25 y      -0.010720  0.036336 -0.039851 -0.001187  0.056246  0.050495
    25 z      -0.020487 -0.000000 -0.180368 -0.000000  0.112298 -0.000000
    26 x      -0.049361  0.115328  0.100042  0.001843 -0.047666  0.067700
    26 y      -0.025647  0.074328  0.088626 -0.015956 -0.055558  0.016636
    26 z       0.007268  0.037300  0.188632 -0.006063 -0.112242  0.013721
    27 x       0.049312 -0.106935 -0.070405 -0.014205  0.029103 -0.090363
    27 y       0.010637 -0.034820  0.004311 -0.013311 -0.032812 -0.078523
    27 z       0.007292  0.001040 -0.006691 -0.079328  0.028449 -0.162033
    28 x       0.036932 -0.128354  0.042529  0.053298 -0.028937  0.030230
    28 y       0.025729 -0.075844 -0.053086  0.030454  0.032124  0.011393
    28 z       0.005927 -0.038340 -0.001574  0.085391 -0.028505  0.148312
    29 x       0.036932 -0.128354  0.042529  0.053298 -0.028937  0.030230
    29 y       0.025729 -0.075844 -0.053086  0.030454  0.032124  0.011393
    29 z       0.005927 -0.038340 -0.001574  0.085391 -0.028505  0.148312
    30 x       0.049312 -0.106935 -0.070405 -0.014205  0.029103 -0.090363
    30 y       0.010637 -0.034820  0.004311 -0.013311 -0.032812 -0.078523
    30 z       0.007292  0.001040 -0.006691 -0.079328  0.028449 -0.162033
    31 x      -0.049361  0.115328  0.100042  0.001843 -0.047666  0.067700
    31 y      -0.025647  0.074328  0.088626 -0.015956 -0.055558  0.016636
    31 z       0.007268  0.037300  0.188632 -0.006063 -0.112242  0.013721
    32 x      -0.036884  0.119961 -0.072166 -0.040935  0.047499 -0.007567
    32 y      -0.010720  0.036336 -0.039851 -0.001187  0.056246  0.050495
    32 z      -0.020487  0.000000 -0.180368  0.000000  0.112298 -0.000000


 Frequency     110.4665            110.4665            111.1963
 IR Intensity    0.0000              0.0000              0.0000
    in X         0.0000              0.0000              0.0000
    in Y         0.0000              0.0000              0.0000
    in Z         0.0000              0.0000              0.0000
 Raman Intsty    0.0000              0.0000              0.0000

                Real    Imaginary   Real    Imaginary   Real    Imaginary

     1 x      -0.053250  0.025726 -0.076697 -0.036301 -0.163915 -0.024725
     1 y      -0.127987  0.074938 -0.153117  0.002606 -0.042818 -0.020522
     1 z      -0.125623  0.028245 -0.079138  0.010751 -0.049507 -0.005712
     2 x       0.047723  0.011334 -0.032638 -0.023710  0.160422  0.027063
     2 y       0.145693  0.044814 -0.037933 -0.125535  0.039325  0.022860
     2 z       0.126936 -0.011338  0.046751 -0.030475  0.036486  0.014422
     3 x       0.000243 -0.018303  0.052232 -0.001864  0.165327  0.016200
     3 y       0.114910 -0.073723  0.144961 -0.012921  0.048080 -0.011251
     3 z       0.057341 -0.024394  0.027955 -0.068261  0.050918 -0.002814
     4 x       0.005284 -0.018756  0.057103  0.061875 -0.161834 -0.018537
     4 y      -0.132616 -0.046029  0.046089  0.135850 -0.044587  0.008914
     4 z      -0.058654  0.007487  0.004431  0.087985 -0.037898 -0.005897
     5 x       0.005284 -0.018756  0.057103  0.061875 -0.161834 -0.018537
     5 y      -0.132616 -0.046029  0.046089  0.135850 -0.044587  0.008914
     5 z      -0.058654  0.007487  0.004431  0.087985 -0.037898 -0.005897
     6 x       0.000243 -0.018303  0.052232 -0.001864  0.165327  0.016200
     6 y       0.114910 -0.073723  0.144961 -0.012921  0.048080 -0.011251
     6 z       0.057341 -0.024394  0.027955 -0.068261  0.050918 -0.002814
     7 x       0.047723  0.011334 -0.032638 -0.023710  0.160422  0.027063
     7 y       0.145693  0.044814 -0.037933 -0.125535  0.039325  0.022860
     7 z       0.126936 -0.011338  0.046751 -0.030475  0.036486  0.014422
     8 x      -0.053250  0.025726 -0.076697 -0.036301 -0.163915 -0.024725
     8 y      -0.127987  0.074938 -0.153117  0.002606 -0.042818 -0.020522
     8 z      -0.125623  0.028245 -0.079138  0.010751 -0.049507 -0.005712
     9 x      -0.005579  0.009814 -0.076856 -0.014799  0.027641 -0.163337
     9 y       0.010943 -0.041307 -0.154462 -0.099499  0.023438 -0.042240
     9 z       0.008642 -0.017944 -0.066930  0.000457  0.016577 -0.047352
    10 x       0.000052  0.027246 -0.032479 -0.045212 -0.024147  0.161000
    10 y       0.006764  0.161059 -0.036587 -0.023430 -0.019944  0.039903
    10 z      -0.007329  0.034851  0.034543 -0.020181 -0.003557  0.038641
    11 x      -0.003017  0.005922  0.049739  0.059257 -0.019115  0.164749
    11 y      -0.012495  0.047945  0.146056  0.111110  0.008336  0.047502
    11 z      -0.014441  0.063773  0.016075  0.062770 -0.008051  0.048764
    12 x       0.008544 -0.042981  0.059595  0.000754  0.015622 -0.162412
    12 y      -0.005212 -0.167697  0.044994  0.011819 -0.011829 -0.045165
    12 z       0.013127 -0.080680  0.016312 -0.043046 -0.004969 -0.040053
    13 x       0.008544 -0.042981  0.059595  0.000754  0.015622 -0.162412
    13 y      -0.005212 -0.167697  0.044994  0.011819 -0.011829 -0.045165
    13 z       0.013127 -0.080680  0.016312 -0.043046 -0.004969 -0.040053
    14 x      -0.003017  0.005922  0.049739  0.059257 -0.019115  0.164749
    14 y      -0.012495  0.047945  0.146056  0.111110  0.008336  0.047502
    14 z      -0.014441  0.063773  0.016075  0.062770 -0.008051  0.048764
    15 x       0.000052  0.027246 -0.032479 -0.045212 -0.024147  0.161000
    15 y       0.006764  0.161059 -0.036587 -0.023430 -0.019944  0.039903
    15 z      -0.007329  0.034851  0.034543 -0.020181 -0.003557  0.038641
    16 x      -0.005579  0.009814 -0.076856 -0.014799  0.027641 -0.163337
    16 y       0.010943 -0.041307 -0.154462 -0.099499  0.023438 -0.042240
    16 z       0.008642 -0.017944 -0.066930  0.000457  0.016577 -0.047352
    17 x       0.045609 -0.002360 -0.055652  0.051645  0.019757 -0.160358
    17 y       0.083645  0.080944 -0.024088  0.139651  0.002004 -0.029562
    17 z      -0.027058  0.046189 -0.013953  0.010294  0.000743 -0.045950
    18 x       0.101581 -0.042950 -0.048447  0.075764 -0.022094  0.156865
    18 y       0.102452 -0.129275 -0.125400  0.062287 -0.004342  0.026069
    18 z       0.062992 -0.056285 -0.013388  0.025215 -0.009453  0.032930
    19 x      -0.098616  0.009782  0.031187 -0.089810 -0.021169  0.168884
    19 y      -0.096722 -0.079729  0.015932 -0.149967 -0.007267  0.061336
    19 z      -0.041223 -0.042338 -0.037230 -0.067805 -0.002155  0.054475
    20 x      -0.048574  0.035527  0.072912 -0.037600  0.023506 -0.165390
    20 y      -0.089375  0.128060  0.133556 -0.051971  0.009604 -0.057842
    20 z       0.005289  0.052435  0.064571  0.032295  0.010865 -0.041455
    21 x      -0.048574  0.035527  0.072912 -0.037600  0.023506 -0.165390
    21 y      -0.089375  0.128060  0.133556 -0.051971  0.009604 -0.057842
    21 z       0.005289  0.052435  0.064571  0.032295  0.010865 -0.041455
    22 x      -0.098616  0.009782  0.031187 -0.089810 -0.021169  0.168884
    22 y      -0.096722 -0.079729  0.015932 -0.149967 -0.007267  0.061336
    22 z      -0.041223 -0.042338 -0.037230 -0.067805 -0.002155  0.054475
    23 x       0.101581 -0.042950 -0.048447  0.075764 -0.022094  0.156865
    23 y       0.102452 -0.129275 -0.125400  0.062287 -0.004342  0.026069
    23 z       0.062992 -0.056285 -0.013388  0.025215 -0.009453  0.032930
    24 x       0.045609 -0.002360 -0.055652  0.051645  0.019757 -0.160358
    24 y       0.083645  0.080944 -0.024088  0.139651  0.002004 -0.029562
    24 z      -0.027058  0.046189 -0.013953  0.010294  0.000743 -0.045950
    25 x      -0.093280  0.018272  0.055811 -0.073147  0.165969  0.020590
    25 y      -0.222574  0.035302  0.025433 -0.037546  0.058421  0.006688
    25 z      -0.107206 -0.000000  0.001745 -0.000000  0.043610  0.000000
    26 x      -0.053910  0.027038  0.048288 -0.054262 -0.168306 -0.024084
    26 y       0.036477  0.013030  0.124055 -0.164392 -0.060758 -0.010182
    26 z       0.071272  0.010096  0.025597 -0.035509 -0.052320 -0.013020
    27 x       0.101876 -0.034007 -0.028694  0.028689 -0.157443 -0.019179
    27 y       0.224126 -0.041939 -0.017027  0.025936 -0.026647 -0.001426
    27 z       0.113005 -0.045829  0.049110 -0.063227 -0.035084  0.001412
    28 x       0.045314 -0.011302 -0.075405  0.098720  0.159780  0.022672
    28 y      -0.038029 -0.006392 -0.132462  0.176002  0.028984  0.004920
    28 z      -0.077071  0.035732 -0.076451  0.098736  0.043795  0.011608
    29 x       0.045314 -0.011302 -0.075405  0.098720  0.159780  0.022672
    29 y      -0.038029 -0.006392 -0.132462  0.176002  0.028984  0.004920
    29 z      -0.077071  0.035732 -0.076451  0.098736  0.043795  0.011608
    30 x       0.101876 -0.034007 -0.028694  0.028689 -0.157443 -0.019179
    30 y       0.224126 -0.041939 -0.017027  0.025936 -0.026647 -0.001426
    30 z       0.113005 -0.045829  0.049110 -0.063227 -0.035084  0.001412
    31 x      -0.053910  0.027038  0.048288 -0.054262 -0.168306 -0.024084
    31 y       0.036477  0.013030  0.124055 -0.164392 -0.060758 -0.010182
    31 z       0.071272  0.010096  0.025597 -0.035509 -0.052320 -0.013020
    32 x      -0.093280  0.018272  0.055811 -0.073147  0.165969  0.020590
    32 y      -0.222574  0.035302  0.025433 -0.037546  0.058421  0.006688
    32 z      -0.107206  0.000000  0.001745 -0.000000  0.043610 -0.000000


 Frequency     111.1963            111.1963            116.6938
 IR Intensity    0.0000              0.0000              0.0000
    in X         0.0000              0.0000              0.0000
    in Y         0.0000              0.0000              0.0000
    in Z         0.0000              0.0000              0.0000
 Raman Intsty    0.0000              0.0000              0.0000

                Real    Imaginary   Real    Imaginary   Real    Imaginary

     1 x       0.006647  0.021116 -0.008610  0.056624 -0.025120  0.128225
     1 y      -0.010382 -0.010939  0.017649  0.168690  0.043235 -0.009133
     1 z       0.000720  0.140599 -0.003261  0.094801 -0.018115 -0.119092
     2 x      -0.005733  0.062694  0.005478 -0.028090 -0.028398 -0.113237
     2 y       0.011296  0.094750 -0.020781 -0.140157  0.010283 -0.005855
     2 z       0.002686  0.171754 -0.008411  0.011541  0.018115  0.119092
     3 x      -0.013876 -0.048450  0.020814  0.026103  0.028398  0.113237
     3 y      -0.016557 -0.090928  0.027836  0.139624 -0.043235  0.009133
     3 z      -0.007948 -0.167932  0.015465 -0.012074  0.014837 -0.122370
     4 x       0.012962 -0.035361 -0.017682 -0.054637  0.025120 -0.128225
     4 y       0.015643  0.007117 -0.024704 -0.168157 -0.010283  0.005855
     4 z       0.004542 -0.144421 -0.003794 -0.094268 -0.014837  0.122370
     5 x       0.012962 -0.035361 -0.017682 -0.054637  0.025120 -0.128225
     5 y       0.015643  0.007117 -0.024704 -0.168157 -0.010283  0.005855
     5 z       0.004542 -0.144421 -0.003794 -0.094268 -0.014837  0.122370
     6 x      -0.013876 -0.048450  0.020814  0.026103  0.028398  0.113237
     6 y      -0.016557 -0.090928  0.027836  0.139624 -0.043235  0.009133
     6 z      -0.007948 -0.167932  0.015465 -0.012074  0.014837 -0.122370
     7 x      -0.005733  0.062694  0.005478 -0.028090 -0.028398 -0.113237
     7 y       0.011296  0.094750 -0.020781 -0.140157  0.010283 -0.005855
     7 z       0.002686  0.171754 -0.008411  0.011541  0.018115  0.119092
     8 x       0.006647  0.021116 -0.008610  0.056624 -0.025120  0.128225
     8 y      -0.010382 -0.010939  0.017649  0.168690  0.043235 -0.009133
     8 z       0.000720  0.140599 -0.003261  0.094801 -0.018115 -0.119092
     9 x       0.020332 -0.035715 -0.040791 -0.021311  0.147490 -0.009133
     9 y       0.052388 -0.052744 -0.152858  0.004948 -0.028398 -0.008982
     9 z       0.013875 -0.157160 -0.035794 -0.050596 -0.119092  0.018115
    10 x      -0.021246 -0.048096  0.043923 -0.007223 -0.093972 -0.005855
    10 y      -0.053302 -0.031067  0.155990 -0.033482 -0.025120  0.023971
    10 z      -0.017281 -0.155193  0.047466 -0.055746  0.119092 -0.018115
    11 x       0.007001  0.028487 -0.041936  0.033515  0.093972  0.005855
    11 y       0.049480  0.025805 -0.155456  0.040537  0.028398  0.008982
    11 z       0.013459  0.149932 -0.046933  0.062800 -0.122370 -0.014837
    12 x      -0.006087  0.055324  0.038804 -0.004982 -0.147490  0.009133
    12 y      -0.048566  0.058006  0.152325 -0.012003  0.025120 -0.023971
    12 z      -0.010052  0.162422  0.035261  0.043541  0.122370  0.014837
    13 x      -0.006087  0.055324  0.038804 -0.004982 -0.147490  0.009133
    13 y      -0.048566  0.058006  0.152325 -0.012003  0.025120 -0.023971
    13 z      -0.010052  0.162422  0.035261  0.043541  0.122370  0.014837
    14 x       0.007001  0.028487 -0.041936  0.033515  0.093972  0.005855
    14 y       0.049480  0.025805 -0.155456  0.040537  0.028398  0.008982
    14 z       0.013459  0.149932 -0.046933  0.062800 -0.122370 -0.014837
    15 x      -0.021246 -0.048096  0.043923 -0.007223 -0.093972 -0.005855
    15 y      -0.053302 -0.031067  0.155990 -0.033482 -0.025120  0.023971
    15 z      -0.017281 -0.155193  0.047466 -0.055746  0.119092 -0.018115
    16 x       0.020332 -0.035715 -0.040791 -0.021311  0.147490 -0.009133
    16 y       0.052388 -0.052744 -0.152858  0.004948 -0.028398 -0.008982
    16 z       0.013875 -0.157160 -0.035794 -0.050596 -0.119092  0.018115
    17 x      -0.031169  0.023928 -0.021362 -0.056075  0.005855 -0.093972
    17 y      -0.026525  0.054021 -0.037276 -0.159250 -0.009133 -0.043235
    17 z      -0.150652  0.018000 -0.059540 -0.050727  0.003278  0.137207
    18 x      -0.052642 -0.023014 -0.007171  0.052944  0.009133  0.147490
    18 y      -0.057286 -0.053107  0.008742  0.156119 -0.005855 -0.010283
    18 z      -0.161702 -0.014594 -0.046802  0.039055 -0.003278 -0.137207
[...]
     7 z      -0.161505 -0.002943 -0.060728  0.009013  0.036456 -0.007693
     8 x       0.037508 -0.016322 -0.098213  0.049949  0.124925 -0.042775
     8 y      -0.017654 -0.000206 -0.118216  0.001052 -0.130238  0.000523
     8 z       0.161505  0.002943  0.060728 -0.009013 -0.036456  0.007693
     9 x      -0.067478  0.016082  0.091005 -0.049222 -0.118145  0.042131
     9 y      -0.012317 -0.000034  0.111008 -0.000325  0.137018 -0.001167
     9 z       0.171365 -0.000280  0.019325  0.000936 -0.038849 -0.000541
    10 x       0.067478 -0.016082 -0.091005  0.049222  0.118145 -0.042131
    10 y       0.012317  0.000034 -0.111008  0.000325 -0.137018  0.001167
    10 z      -0.171365  0.000280 -0.019325 -0.000936  0.038849  0.000541
    11 x       0.067478 -0.016082 -0.091005  0.049222  0.118145 -0.042131
    11 y       0.012317  0.000034 -0.111008  0.000325 -0.137018  0.001167
    11 z      -0.171365  0.000280 -0.019325 -0.000936  0.038849  0.000541
    12 x      -0.067478  0.016082  0.091005 -0.049222 -0.118145  0.042131
    12 y      -0.012317 -0.000034  0.111008 -0.000325  0.137018 -0.001167
    12 z       0.171365 -0.000280  0.019325  0.000936 -0.038849 -0.000541
    13 x       0.067478 -0.016082 -0.091005  0.049222  0.118145 -0.042131
    13 y       0.012317  0.000034 -0.111008  0.000325 -0.137018  0.001167
    13 z      -0.171365  0.000280 -0.019325 -0.000936  0.038849  0.000541
    14 x      -0.067478  0.016082  0.091005 -0.049222 -0.118145  0.042131
    14 y      -0.012317 -0.000034  0.111008 -0.000325  0.137018 -0.001167
    14 z       0.171365 -0.000280  0.019325  0.000936 -0.038849 -0.000541
    15 x      -0.067478  0.016082  0.091005 -0.049222 -0.118145  0.042131
    15 y      -0.012317 -0.000034  0.111008 -0.000325  0.137018 -0.001167
    15 z       0.171365 -0.000280  0.019325  0.000936 -0.038849 -0.000541
    16 x       0.067478 -0.016082 -0.091005  0.049222  0.118145 -0.042131
    16 y       0.012317  0.000034 -0.111008  0.000325 -0.137018  0.001167
    16 z      -0.171365  0.000280 -0.019325 -0.000936  0.038849  0.000541
    17 x      -0.037881  0.016602  0.120567 -0.050885 -0.102652  0.043316
    17 y       0.021803 -0.002909 -0.130058  0.009338 -0.117138 -0.006527
    17 z      -0.161879 -0.002662 -0.038374  0.008078  0.058729 -0.007153
    18 x       0.037881 -0.016602 -0.120567  0.050885  0.102652 -0.043316
    18 y      -0.021803  0.002909  0.130058 -0.009338  0.117138  0.006527
    18 z       0.161879  0.002662  0.038374 -0.008078 -0.058729  0.007153
    19 x       0.037881 -0.016602 -0.120567  0.050885  0.102652 -0.043316
    19 y      -0.021803  0.002909  0.130058 -0.009338  0.117138  0.006527
    19 z       0.161879  0.002662  0.038374 -0.008078 -0.058729  0.007153
    20 x      -0.037881  0.016602  0.120567 -0.050885 -0.102652  0.043316
    20 y       0.021803 -0.002909 -0.130058  0.009338 -0.117138 -0.006527
    20 z      -0.161879 -0.002662 -0.038374  0.008078  0.058729 -0.007153
    21 x       0.037881 -0.016602 -0.120567  0.050885  0.102652 -0.043316
    21 y      -0.021803  0.002909  0.130058 -0.009338  0.117138  0.006527
    21 z       0.161879  0.002662  0.038374 -0.008078 -0.058729  0.007153
    22 x      -0.037881  0.016602  0.120567 -0.050885 -0.102652  0.043316
    22 y       0.021803 -0.002909 -0.130058  0.009338 -0.117138 -0.006527
    22 z      -0.161879 -0.002662 -0.038374  0.008078  0.058729 -0.007153
    23 x      -0.037881  0.016602  0.120567 -0.050885 -0.102652  0.043316
    23 y       0.021803 -0.002909 -0.130058  0.009338 -0.117138 -0.006527
    23 z      -0.161879 -0.002662 -0.038374  0.008078  0.058729 -0.007153
    24 x       0.037881 -0.016602 -0.120567  0.050885  0.102652 -0.043316
    24 y      -0.021803  0.002909  0.130058 -0.009338  0.117138  0.006527
    24 z       0.161879  0.002662  0.038374 -0.008078 -0.058729  0.007153
    25 x       0.067852 -0.016362 -0.113359  0.050158  0.095872 -0.042672
    25 y       0.008167  0.003149  0.137265 -0.010066  0.110358  0.007171
    25 z      -0.170992  0.000000 -0.041679 -0.000000  0.016576 -0.000000
    26 x      -0.067852  0.016362  0.113359 -0.050158 -0.095872  0.042672
    26 y      -0.008167 -0.003149 -0.137265  0.010066 -0.110358 -0.007171
    26 z       0.170992  0.000000  0.041679  0.000000 -0.016576 -0.000000
    27 x      -0.067852  0.016362  0.113359 -0.050158 -0.095872  0.042672
    27 y      -0.008167 -0.003149 -0.137265  0.010066 -0.110358 -0.007171
    27 z       0.170992 -0.000000  0.041679  0.000000 -0.016576  0.000000
    28 x       0.067852 -0.016362 -0.113359  0.050158  0.095872 -0.042672
    28 y       0.008167  0.003149  0.137265 -0.010066  0.110358  0.007171
    28 z      -0.170992 -0.000000 -0.041679 -0.000000  0.016576  0.000000
    29 x      -0.067852  0.016362  0.113359 -0.050158 -0.095872  0.042672
    29 y      -0.008167 -0.003149 -0.137265  0.010066 -0.110358 -0.007171
    29 z       0.170992 -0.000000  0.041679  0.000000 -0.016576  0.000000
    30 x       0.067852 -0.016362 -0.113359  0.050158  0.095872 -0.042672
    30 y       0.008167  0.003149  0.137265 -0.010066  0.110358  0.007171
    30 z      -0.170992  0.000000 -0.041679 -0.000000  0.016576  0.000000
    31 x       0.067852 -0.016362 -0.113359  0.050158  0.095872 -0.042672
    31 y       0.008167  0.003149  0.137265 -0.010066  0.110358  0.007171
    31 z      -0.170992  0.000000 -0.041679  0.000000  0.016576 -0.000000
    32 x      -0.067852  0.016362  0.113359 -0.050158 -0.095872  0.042672
    32 y      -0.008167 -0.003149 -0.137265  0.010066 -0.110358 -0.007171
    32 z       0.170992 -0.000000  0.041679 -0.000000 -0.016576  0.000000


 Frequency     218.8919            218.8919            218.8919
 IR Intensity    0.0000              0.0000              0.0000
    in X         0.0000              0.0000              0.0000
    in Y         0.0000              0.0000              0.0000
    in Z         0.0000              0.0000              0.0000
 Raman Intsty    0.0000              0.0000              0.0000

                Real    Imaginary   Real    Imaginary   Real    Imaginary

     1 x       0.045706  0.009695 -0.077919  0.061600 -0.095645  0.100265
     1 y      -0.172678 -0.000454 -0.006612 -0.010076  0.035162 -0.007107
     1 z       0.060382 -0.011185  0.137255  0.022194 -0.031999 -0.084401
     2 x       0.045706  0.009695 -0.077919  0.061600 -0.095645  0.100265
     2 y      -0.172678 -0.000454 -0.006612 -0.010076  0.035162 -0.007107
     2 z       0.060382 -0.011185  0.137255  0.022194 -0.031999 -0.084401
     3 x       0.045706  0.009695 -0.077919  0.061600 -0.095645  0.100265
     3 y      -0.172678 -0.000454 -0.006612 -0.010076  0.035162 -0.007107
     3 z       0.060382 -0.011185  0.137255  0.022194 -0.031999 -0.084401
     4 x       0.045706  0.009695 -0.077919  0.061600 -0.095645  0.100265
     4 y      -0.172678 -0.000454 -0.006612 -0.010076  0.035162 -0.007107
     4 z       0.060382 -0.011185  0.137255  0.022194 -0.031999 -0.084401
     5 x       0.045706  0.009695 -0.077919  0.061600 -0.095645  0.100265
     5 y      -0.172678 -0.000454 -0.006612 -0.010076  0.035162 -0.007107
     5 z       0.060382 -0.011185  0.137255  0.022194 -0.031999 -0.084401
     6 x       0.045706  0.009695 -0.077919  0.061600 -0.095645  0.100265
     6 y      -0.172678 -0.000454 -0.006612 -0.010076  0.035162 -0.007107
     6 z       0.060382 -0.011185  0.137255  0.022194 -0.031999 -0.084401
     7 x       0.045706  0.009695 -0.077919  0.061600 -0.095645  0.100265
     7 y      -0.172678 -0.000454 -0.006612 -0.010076  0.035162 -0.007107
     7 z       0.060382 -0.011185  0.137255  0.022194 -0.031999 -0.084401
     8 x       0.045706  0.009695 -0.077919  0.061600 -0.095645  0.100265
     8 y      -0.172678 -0.000454 -0.006612 -0.010076  0.035162 -0.007107
     8 z       0.060382 -0.011185  0.137255  0.022194 -0.031999 -0.084401
     9 x      -0.174403 -0.001328  0.006521 -0.002505  0.025400 -0.011741
     9 y       0.043981  0.008822 -0.064786  0.069171 -0.105407  0.095630
     9 z       0.085791  0.001681 -0.056161 -0.089313  0.111783 -0.016144
    10 x      -0.174403 -0.001328  0.006521 -0.002505  0.025400 -0.011741
    10 y       0.043981  0.008822 -0.064786  0.069171 -0.105407  0.095630
    10 z       0.085791  0.001681 -0.056161 -0.089313  0.111783 -0.016144
    11 x      -0.174403 -0.001328  0.006521 -0.002505  0.025400 -0.011741
    11 y       0.043981  0.008822 -0.064786  0.069171 -0.105407  0.095630
    11 z       0.085791  0.001681 -0.056161 -0.089313  0.111783 -0.016144
    12 x      -0.174403 -0.001328  0.006521 -0.002505  0.025400 -0.011741
    12 y       0.043981  0.008822 -0.064786  0.069171 -0.105407  0.095630
    12 z       0.085791  0.001681 -0.056161 -0.089313  0.111783 -0.016144
    13 x      -0.174403 -0.001328  0.006521 -0.002505  0.025400 -0.011741
    13 y       0.043981  0.008822 -0.064786  0.069171 -0.105407  0.095630
    13 z       0.085791  0.001681 -0.056161 -0.089313  0.111783 -0.016144
    14 x      -0.174403 -0.001328  0.006521 -0.002505  0.025400 -0.011741
    14 y       0.043981  0.008822 -0.064786  0.069171 -0.105407  0.095630
    14 z       0.085791  0.001681 -0.056161 -0.089313  0.111783 -0.016144
    15 x      -0.174403 -0.001328  0.006521 -0.002505  0.025400 -0.011741
    15 y       0.043981  0.008822 -0.064786  0.069171 -0.105407  0.095630
    15 z       0.085791  0.001681 -0.056161 -0.089313  0.111783 -0.016144
    16 x      -0.174403 -0.001328  0.006521 -0.002505  0.025400 -0.011741
    16 y       0.043981  0.008822 -0.064786  0.069171 -0.105407  0.095630
    16 z       0.085791  0.001681 -0.056161 -0.089313  0.111783 -0.016144
    17 x       0.043839 -0.011376  0.141240  0.027713 -0.037491 -0.084121
    17 y       0.070973  0.002363 -0.065308 -0.091365  0.116053 -0.011230
    17 z       0.029163  0.009504 -0.073933  0.067120 -0.101137  0.100545
    18 x       0.043839 -0.011376  0.141240  0.027713 -0.037491 -0.084121
    18 y       0.070973  0.002363 -0.065308 -0.091365  0.116053 -0.011230
    18 z       0.029163  0.009504 -0.073933  0.067120 -0.101137  0.100545
    19 x       0.043839 -0.011376  0.141240  0.027713 -0.037491 -0.084121
    19 y       0.070973  0.002363 -0.065308 -0.091365  0.116053 -0.011230
    19 z       0.029163  0.009504 -0.073933  0.067120 -0.101137  0.100545
    20 x       0.043839 -0.011376  0.141240  0.027713 -0.037491 -0.084121
    20 y       0.070973  0.002363 -0.065308 -0.091365  0.116053 -0.011230
    20 z       0.029163  0.009504 -0.073933  0.067120 -0.101137  0.100545
    21 x       0.043839 -0.011376  0.141240  0.027713 -0.037491 -0.084121
    21 y       0.070973  0.002363 -0.065308 -0.091365  0.116053 -0.011230
    21 z       0.029163  0.009504 -0.073933  0.067120 -0.101137  0.100545
    22 x       0.043839 -0.011376  0.141240  0.027713 -0.037491 -0.084121
    22 y       0.070973  0.002363 -0.065308 -0.091365  0.116053 -0.011230
    22 z       0.029163  0.009504 -0.073933  0.067120 -0.101137  0.100545
    23 x       0.043839 -0.011376  0.141240  0.027713 -0.037491 -0.084121
    23 y       0.070973  0.002363 -0.065308 -0.091365  0.116053 -0.011230
    23 z       0.029163  0.009504 -0.073933  0.067120 -0.101137  0.100545
    24 x       0.043839 -0.011376  0.141240  0.027713 -0.037491 -0.084121
    24 y       0.070973  0.002363 -0.065308 -0.091365  0.116053 -0.011230
    24 z       0.029163  0.009504 -0.073933  0.067120 -0.101137  0.100545
    25 x       0.084858  0.003009 -0.069842 -0.086808  0.107737 -0.004403
    25 y       0.057724 -0.010731  0.136706  0.032270 -0.045808 -0.077294
    25 z      -0.175336 -0.000000 -0.007160 -0.000000  0.021353 -0.000000
    26 x       0.084858  0.003009 -0.069842 -0.086808  0.107737 -0.004403
    26 y       0.057724 -0.010731  0.136706  0.032270 -0.045808 -0.077294
    26 z      -0.175336  0.000000 -0.007160 -0.000000  0.021353 -0.000000
    27 x       0.084858  0.003009 -0.069842 -0.086808  0.107737 -0.004403
    27 y       0.057724 -0.010731  0.136706  0.032270 -0.045808 -0.077294
    27 z      -0.175336 -0.000000 -0.007160 -0.000000  0.021353 -0.000000
    28 x       0.084858  0.003009 -0.069842 -0.086808  0.107737 -0.004403
    28 y       0.057724 -0.010731  0.136706  0.032270 -0.045808 -0.077294
    28 z      -0.175336  0.000000 -0.007160 -0.000000  0.021353  0.000000
    29 x       0.084858  0.003009 -0.069842 -0.086808  0.107737 -0.004403
    29 y       0.057724 -0.010731  0.136706  0.032270 -0.045808 -0.077294
    29 z      -0.175336  0.000000 -0.007160 -0.000000  0.021353 -0.000000
    30 x       0.084858  0.003009 -0.069842 -0.086808  0.107737 -0.004403
    30 y       0.057724 -0.010731  0.136706  0.032270 -0.045808 -0.077294
    30 z      -0.175336  0.000000 -0.007160  0.000000  0.021353  0.000000
    31 x       0.084858  0.003009 -0.069842 -0.086808  0.107737 -0.004403
    31 y       0.057724 -0.010731  0.136706  0.032270 -0.045808 -0.077294
    31 z      -0.175336  0.000000 -0.007160 -0.000000  0.021353  0.000000
    32 x       0.084858  0.003009 -0.069842 -0.086808  0.107737 -0.004403
    32 y       0.057724 -0.010731  0.136706  0.032270 -0.045808 -0.077294
    32 z      -0.175336  0.000000 -0.007160  0.000000  0.021353 -0.000000




--------------------------------------------------------------------------------
  Phonon properties (per mole of unit cells): Temperature =      0.000 K
--------------------------------------------------------------------------------
  Zero point energy            =        0.878242 eV
--------------------------------------------------------------------------------

  Phonon density of states : 

--------------------------------------------------------------------------------
 Frequency (cm-1) Density of States                                             
--------------------------------------------------------------------------------
    0.00000 |                                                              0.000
    4.00000 |                                                              0.000
    8.00000 |                                                              0.000
   12.00000 |                                                              0.000
   16.00000 |                                                              0.000
   20.00000 |                                                              0.000
   24.00000 |                                                              0.000
   28.00000 |                                                              0.000
   32.00000 |                                                              0.000
   36.00000 |**********                                                    0.021
   40.00000 |                                                              0.000
   44.00000 |                                                              0.000
   48.00000 |                                                              0.000
   52.00000 |                                                              0.000
   56.00000 |                                                              0.000
   60.00000 |                                                              0.000
   64.00000 |                                                              0.000
   68.00000 |                                                              0.000
   72.00000 |***************                                               0.031
   76.00000 |***************                                               0.031
   80.00000 |***************                                               0.031
   84.00000 |                                                              0.000
   88.00000 |**********                                                    0.021
   92.00000 |*****                                                         0.010
   96.00000 |                                                              0.000
  100.00000 |                                                              0.000
  104.00000 |***************                                               0.031
  108.00000 |*********************************************                 0.094
  112.00000 |                                                              0.000
  116.00000 |******************************                                0.062
  120.00000 |***************                                               0.031
  124.00000 |***************                                               0.031
  128.00000 |                                                              0.000
  132.00000 |                                                              0.000
  136.00000 |******************************                                0.062
  140.00000 |***************                                               0.031
  144.00000 |******************************                                0.062
  148.00000 |                                                              0.000
  152.00000 |******************************                                0.062
  156.00000 |                                                              0.000
  160.00000 |                                                              0.000
  164.00000 |***************                                               0.031
  168.00000 |                                                              0.000
  172.00000 |******************************                                0.062
  176.00000 |                                                              0.000
  180.00000 |                                                              0.000
  184.00000 |***************                                               0.031
  188.00000 |                                                              0.000
  192.00000 |***************                                               0.031
  196.00000 |                                                              0.000
  200.00000 |************************************************************  0.125
  204.00000 |***************                                               0.031
  208.00000 |*****                                                         0.010
  212.00000 |                                                              0.000
  216.00000 |******************************                                0.062
  220.00000 |                                                              0.000
  224.00000 |                                                              0.000
  228.00000 |                                                              0.000
  232.00000 |                                                              0.000
  236.00000 |                                                              0.000
  240.00000 |                                                              0.000
  244.00000 |                                                              0.000
  248.00000 |                                                              0.000
  252.00000 |                                                              0.000
--------------------------------------------------------------------------------



  Time to end of properties =     430.0103 seconds


  Peak dynamic memory used =       0.69 MB 


  Timing analysis for GULP :

--------------------------------------------------------------------------------
  Task / Subroutine                                          Time (Seconds)
--------------------------------------------------------------------------------
  Calculation of real space energy and derivatives                0.1333
  Calculation of many-body energy and derivatives               429.5923
--------------------------------------------------------------------------------
  Total CPU time                                                430.0103
--------------------------------------------------------------------------------


  Job Finished at 10:47.39 12th January    2010                               

