********************************************************************************
*                       GENERAL UTILITY LATTICE PROGRAM                        *
*                                 Julian Gale                                  *
*                      Nanochemistry Research Institute                        *
*             Curtin University of Technology, Western Australia               *
********************************************************************************
* Version = 3.4.7 * Last modified =  21st July 2009                            *
********************************************************************************
*  single       - perform a single point run                                   *
*  md           - perform molecular dynamics run                               *
*  conv         - constant volume calculation                                  *
*  molq         - molecule option activated, but with Coulomb terms retained   *
********************************************************************************

  Job Started  at 20:09.44 27th November   2009                               

  Number of CPUs =     1


  Total number of configurations input =   1

********************************************************************************
*  Input for Configuration =   1                                               *
********************************************************************************

  Formula = C224                                                        

  Number of irreducible atoms/shells =     224


  Total number atoms/shells =     224

  Dimensionality = 3               :  Bulk   



  Supercell dimensions :  x =   2  y =   1  z =   2

  Cartesian lattice vectors (Angstroms) :

       12.995930    0.000000    0.000000
        0.000000   11.254806    0.000000
        0.000000    0.000000   18.080000

  Cell parameters (Angstroms/Degrees):

  a =      12.9959    alpha =  90.0000
  b =      11.2548    beta  =  90.0000
  c =      18.0800    gamma =  90.0000

  Initial cell volume =        2644.501478 Angs**3

  Temperature of configuration =  300.0     K 

  Pressure of configuration =         0.000 GPa 

  Fractional coordinates of asymmetric unit :

--------------------------------------------------------------------------------
   No.  Atomic       x           y          z         Charge      Occupancy
        Label      (Frac)      (Frac)     (Frac)        (e)         (Frac)  
--------------------------------------------------------------------------------
      1 C     c    0.000000 *  0.000000 *  0.000000 *    0.0000    1.000000    
      2 C     c    0.000000 *  0.000000 *  0.500000 *    0.0000    1.000000    
      3 C     c    0.500000 *  0.000000 *  0.000000 *    0.0000    1.000000    
      4 C     c    0.500000 *  0.000000 *  0.500000 *    0.0000    1.000000    
      5 C     c    0.142891 *  0.142872 *  0.000000 *    0.0000    1.000000    
      6 C     c    0.142891 *  0.142872 *  0.500000 *    0.0000    1.000000    
      7 C     c    0.642891 *  0.142872 *  0.000000 *    0.0000    1.000000    
      8 C     c    0.642891 *  0.142872 *  0.500000 *    0.0000    1.000000    
      9 C     c    0.464299 *  0.547588 *  0.000000 *    0.0000    1.000000    
     10 C     c    0.464299 *  0.547588 *  0.500000 *    0.0000    1.000000    
     11 C     c    0.964299 *  0.547588 *  0.000000 *    0.0000    1.000000    
     12 C     c    0.964299 *  0.547588 *  0.500000 *    0.0000    1.000000    
     13 C     c    0.000000 *  0.333369 *  0.000000 *    0.0000    1.000000    
     14 C     c    0.000000 *  0.333369 *  0.500000 *    0.0000    1.000000    
     15 C     c    0.500000 *  0.333369 *  0.000000 *    0.0000    1.000000    
     16 C     c    0.500000 *  0.333369 *  0.500000 *    0.0000    1.000000    
     17 C     c    0.392892 *  0.976205 *  0.000000 *    0.0000    1.000000    
     18 C     c    0.392892 *  0.976205 *  0.500000 *    0.0000    1.000000    
     19 C     c    0.892892 *  0.976205 *  0.000000 *    0.0000    1.000000    
     20 C     c    0.892892 *  0.976205 *  0.500000 *    0.0000    1.000000    
     21 C     c    0.428596 *  0.761897 *  0.000000 *    0.0000    1.000000    
     22 C     c    0.428596 *  0.761897 *  0.500000 *    0.0000    1.000000    
     23 C     c    0.928596 *  0.761897 *  0.000000 *    0.0000    1.000000    
     24 C     c    0.928596 *  0.761897 *  0.500000 *    0.0000    1.000000    
     25 C     c    0.035703 *  0.119060 *  0.000000 *    0.0000    1.000000    
     26 C     c    0.035703 *  0.119060 *  0.500000 *    0.0000    1.000000    
     27 C     c    0.535703 *  0.119060 *  0.000000 *    0.0000    1.000000    
     28 C     c    0.535703 *  0.119060 *  0.500000 *    0.0000    1.000000    
     29 C     c    0.107110 *  0.357181 *  0.000000 *    0.0000    1.000000    
     30 C     c    0.107110 *  0.357181 *  0.500000 *    0.0000    1.000000    
     31 C     c    0.607110 *  0.357181 *  0.000000 *    0.0000    1.000000    
     32 C     c    0.607110 *  0.357181 *  0.500000 *    0.0000    1.000000    
     33 C     c    0.285705 *  0.619024 *  0.000000 *    0.0000    1.000000    
     34 C     c    0.285705 *  0.619024 *  0.500000 *    0.0000    1.000000    
     35 C     c    0.785705 *  0.619024 *  0.000000 *    0.0000    1.000000    
     36 C     c    0.785705 *  0.619024 *  0.500000 *    0.0000    1.000000    
     37 C     c    0.071407 *  0.571400 *  0.000000 *    0.0000    1.000000    
     38 C     c    0.071407 *  0.571400 *  0.500000 *    0.0000    1.000000    
     39 C     c    0.571407 *  0.571400 *  0.000000 *    0.0000    1.000000    
     40 C     c    0.571407 *  0.571400 *  0.500000 *    0.0000    1.000000    
     41 C     c    0.035703 *  0.785709 *  0.000000 *    0.0000    1.000000    
     42 C     c    0.035703 *  0.785709 *  0.500000 *    0.0000    1.000000    
     43 C     c    0.535703 *  0.785709 *  0.000000 *    0.0000    1.000000    
     44 C     c    0.535703 *  0.785709 *  0.500000 *    0.0000    1.000000    
     45 C     c    0.214298 *  0.047624 *  0.000000 *    0.0000    1.000000    
     46 C     c    0.214298 *  0.047624 *  0.500000 *    0.0000    1.000000    
     47 C     c    0.714298 *  0.047624 *  0.000000 *    0.0000    1.000000    
     48 C     c    0.714298 *  0.047624 *  0.500000 *    0.0000    1.000000    
     49 C     c    0.321408 *  0.071436 *  0.000000 *    0.0000    1.000000    
     50 C     c    0.321408 *  0.071436 *  0.500000 *    0.0000    1.000000    
     51 C     c    0.821408 *  0.071436 *  0.000000 *    0.0000    1.000000    
     52 C     c    0.821408 *  0.071436 *  0.500000 *    0.0000    1.000000    
     53 C     c    0.178594 *  0.261933 *  0.000000 *    0.0000    1.000000    
     54 C     c    0.178594 *  0.261933 *  0.500000 *    0.0000    1.000000    
     55 C     c    0.678594 *  0.261933 *  0.000000 *    0.0000    1.000000    
     56 C     c    0.678594 *  0.261933 *  0.500000 *    0.0000    1.000000    
     57 C     c    0.285705 *  0.285745 *  0.000000 *    0.0000    1.000000    
     58 C     c    0.285705 *  0.285745 *  0.500000 *    0.0000    1.000000    
     59 C     c    0.785705 *  0.285745 *  0.000000 *    0.0000    1.000000    
     60 C     c    0.785705 *  0.285745 *  0.500000 *    0.0000    1.000000    
     61 C     c    0.142891 *  0.476152 *  0.000000 *    0.0000    1.000000    
     62 C     c    0.142891 *  0.476152 *  0.500000 *    0.0000    1.000000    
     63 C     c    0.642891 *  0.476152 *  0.000000 *    0.0000    1.000000    
     64 C     c    0.642891 *  0.476152 *  0.500000 *    0.0000    1.000000    
     65 C     c    0.250001 *  0.499964 *  0.000000 *    0.0000    1.000000    
     66 C     c    0.250001 *  0.499964 *  0.500000 *    0.0000    1.000000    
     67 C     c    0.750001 *  0.499964 *  0.000000 *    0.0000    1.000000    
     68 C     c    0.750001 *  0.499964 *  0.500000 *    0.0000    1.000000    
     69 C     c    0.107110 *  0.690461 *  0.000000 *    0.0000    1.000000    
     70 C     c    0.107110 *  0.690461 *  0.500000 *    0.0000    1.000000    
     71 C     c    0.607110 *  0.690461 *  0.000000 *    0.0000    1.000000    
     72 C     c    0.607110 *  0.690461 *  0.500000 *    0.0000    1.000000    
     73 C     c    0.214298 *  0.714273 *  0.000000 *    0.0000    1.000000    
     74 C     c    0.214298 *  0.714273 *  0.500000 *    0.0000    1.000000    
     75 C     c    0.714298 *  0.714273 *  0.000000 *    0.0000    1.000000    
     76 C     c    0.714298 *  0.714273 *  0.500000 *    0.0000    1.000000    
     77 C     c    0.071407 *  0.904769 *  0.000000 *    0.0000    1.000000    
     78 C     c    0.071407 *  0.904769 *  0.500000 *    0.0000    1.000000    
     79 C     c    0.571407 *  0.904769 *  0.000000 *    0.0000    1.000000    
     80 C     c    0.571407 *  0.904769 *  0.500000 *    0.0000    1.000000    
     81 C     c    0.178594 *  0.928581 *  0.000000 *    0.0000    1.000000    
     82 C     c    0.178594 *  0.928581 *  0.500000 *    0.0000    1.000000    
     83 C     c    0.678594 *  0.928581 *  0.000000 *    0.0000    1.000000    
     84 C     c    0.678594 *  0.928581 *  0.500000 *    0.0000    1.000000    
     85 C     c    0.357112 *  0.190496 *  0.000000 *    0.0000    1.000000    
     86 C     c    0.357112 *  0.190496 *  0.500000 *    0.0000    1.000000    
     87 C     c    0.857112 *  0.190496 *  0.000000 *    0.0000    1.000000    
     88 C     c    0.857112 *  0.190496 *  0.500000 *    0.0000    1.000000    
     89 C     c    0.464299 *  0.214308 *  0.000000 *    0.0000    1.000000    
     90 C     c    0.464299 *  0.214308 *  0.500000 *    0.0000    1.000000    
     91 C     c    0.964299 *  0.214308 *  0.000000 *    0.0000    1.000000    
     92 C     c    0.964299 *  0.214308 *  0.500000 *    0.0000    1.000000    
     93 C     c    0.321408 *  0.404805 *  0.000000 *    0.0000    1.000000    
     94 C     c    0.321408 *  0.404805 *  0.500000 *    0.0000    1.000000    
     95 C     c    0.821408 *  0.404805 *  0.000000 *    0.0000    1.000000    
     96 C     c    0.821408 *  0.404805 *  0.500000 *    0.0000    1.000000    
     97 C     c    0.428596 *  0.428528 *  0.000000 *    0.0000    1.000000    
     98 C     c    0.428596 *  0.428528 *  0.500000 *    0.0000    1.000000    
     99 C     c    0.928596 *  0.428528 *  0.000000 *    0.0000    1.000000    
    100 C     c    0.928596 *  0.428528 *  0.500000 *    0.0000    1.000000    
    101 C     c    0.392892 *  0.642836 *  0.000000 *    0.0000    1.000000    
    102 C     c    0.392892 *  0.642836 *  0.500000 *    0.0000    1.000000    
    103 C     c    0.892892 *  0.642836 *  0.000000 *    0.0000    1.000000    
    104 C     c    0.892892 *  0.642836 *  0.500000 *    0.0000    1.000000    
    105 C     c    0.250001 *  0.833333 *  0.000000 *    0.0000    1.000000    
    106 C     c    0.250001 *  0.833333 *  0.500000 *    0.0000    1.000000    
    107 C     c    0.750001 *  0.833333 *  0.000000 *    0.0000    1.000000    
    108 C     c    0.750001 *  0.833333 *  0.500000 *    0.0000    1.000000    
    109 C     c    0.357112 *  0.857145 *  0.000000 *    0.0000    1.000000    
    110 C     c    0.357112 *  0.857145 *  0.500000 *    0.0000    1.000000    
    111 C     c    0.857112 *  0.857145 *  0.000000 *    0.0000    1.000000    
    112 C     c    0.857112 *  0.857145 *  0.500000 *    0.0000    1.000000    
    113 C     c    0.000000 *  0.000000 *  0.314712 *    0.0000    1.000000    
    114 C     c    0.000000 *  0.000000 *  0.814712 *    0.0000    1.000000    
    115 C     c    0.500000 *  0.000000 *  0.314712 *    0.0000    1.000000    
    116 C     c    0.500000 *  0.000000 *  0.814712 *    0.0000    1.000000    
    117 C     c    0.142891 *  0.142872 *  0.314712 *    0.0000    1.000000    
    118 C     c    0.142891 *  0.142872 *  0.814712 *    0.0000    1.000000    
    119 C     c    0.642891 *  0.142872 *  0.314712 *    0.0000    1.000000    
    120 C     c    0.642891 *  0.142872 *  0.814712 *    0.0000    1.000000    
    121 C     c    0.464299 *  0.547588 *  0.314712 *    0.0000    1.000000    
    122 C     c    0.464299 *  0.547588 *  0.814712 *    0.0000    1.000000    
    123 C     c    0.964299 *  0.547588 *  0.314712 *    0.0000    1.000000    
    124 C     c    0.964299 *  0.547588 *  0.814712 *    0.0000    1.000000    
    125 C     c    0.000000 *  0.333369 *  0.314712 *    0.0000    1.000000    
    126 C     c    0.000000 *  0.333369 *  0.814712 *    0.0000    1.000000    
    127 C     c    0.500000 *  0.333369 *  0.314712 *    0.0000    1.000000    
    128 C     c    0.500000 *  0.333369 *  0.814712 *    0.0000    1.000000    
    129 C     c    0.392892 *  0.976205 *  0.314712 *    0.0000    1.000000    
    130 C     c    0.392892 *  0.976205 *  0.814712 *    0.0000    1.000000    
    131 C     c    0.892892 *  0.976205 *  0.314712 *    0.0000    1.000000    
    132 C     c    0.892892 *  0.976205 *  0.814712 *    0.0000    1.000000    
    133 C     c    0.428596 *  0.761897 *  0.314712 *    0.0000    1.000000    
    134 C     c    0.428596 *  0.761897 *  0.814712 *    0.0000    1.000000    
    135 C     c    0.928596 *  0.761897 *  0.314712 *    0.0000    1.000000    
    136 C     c    0.928596 *  0.761897 *  0.814712 *    0.0000    1.000000    
    137 C     c    0.035703 *  0.119060 *  0.314712 *    0.0000    1.000000    
    138 C     c    0.035703 *  0.119060 *  0.814712 *    0.0000    1.000000    
    139 C     c    0.535703 *  0.119060 *  0.314712 *    0.0000    1.000000    
    140 C     c    0.535703 *  0.119060 *  0.814712 *    0.0000    1.000000    
    141 C     c    0.107110 *  0.357181 *  0.314712 *    0.0000    1.000000    
    142 C     c    0.107110 *  0.357181 *  0.814712 *    0.0000    1.000000    
    143 C     c    0.607110 *  0.357181 *  0.314712 *    0.0000    1.000000    
    144 C     c    0.607110 *  0.357181 *  0.814712 *    0.0000    1.000000    
    145 C     c    0.285705 *  0.619024 *  0.314712 *    0.0000    1.000000    
    146 C     c    0.285705 *  0.619024 *  0.814712 *    0.0000    1.000000    
    147 C     c    0.785705 *  0.619024 *  0.314712 *    0.0000    1.000000    
    148 C     c    0.785705 *  0.619024 *  0.814712 *    0.0000    1.000000    
    149 C     c    0.071407 *  0.571400 *  0.314712 *    0.0000    1.000000    
    150 C     c    0.071407 *  0.571400 *  0.814712 *    0.0000    1.000000    
    151 C     c    0.571407 *  0.571400 *  0.314712 *    0.0000    1.000000    
    152 C     c    0.571407 *  0.571400 *  0.814712 *    0.0000    1.000000    
    153 C     c    0.035703 *  0.785709 *  0.314712 *    0.0000    1.000000    
    154 C     c    0.035703 *  0.785709 *  0.814712 *    0.0000    1.000000    
    155 C     c    0.535703 *  0.785709 *  0.314712 *    0.0000    1.000000    
    156 C     c    0.535703 *  0.785709 *  0.814712 *    0.0000    1.000000    
    157 C     c    0.214298 *  0.047624 *  0.314712 *    0.0000    1.000000    
    158 C     c    0.214298 *  0.047624 *  0.814712 *    0.0000    1.000000    
    159 C     c    0.714298 *  0.047624 *  0.314712 *    0.0000    1.000000    
    160 C     c    0.714298 *  0.047624 *  0.814712 *    0.0000    1.000000    
    161 C     c    0.321408 *  0.071436 *  0.314712 *    0.0000    1.000000    
    162 C     c    0.321408 *  0.071436 *  0.814712 *    0.0000    1.000000    
    163 C     c    0.821408 *  0.071436 *  0.314712 *    0.0000    1.000000    
    164 C     c    0.821408 *  0.071436 *  0.814712 *    0.0000    1.000000    
    165 C     c    0.178594 *  0.261933 *  0.314712 *    0.0000    1.000000    
    166 C     c    0.178594 *  0.261933 *  0.814712 *    0.0000    1.000000    
    167 C     c    0.678594 *  0.261933 *  0.314712 *    0.0000    1.000000    
    168 C     c    0.678594 *  0.261933 *  0.814712 *    0.0000    1.000000    
    169 C     c    0.285705 *  0.285745 *  0.314712 *    0.0000    1.000000    
    170 C     c    0.285705 *  0.285745 *  0.814712 *    0.0000    1.000000    
    171 C     c    0.785705 *  0.285745 *  0.314712 *    0.0000    1.000000    
    172 C     c    0.785705 *  0.285745 *  0.814712 *    0.0000    1.000000    
    173 C     c    0.142891 *  0.476152 *  0.314712 *    0.0000    1.000000    
    174 C     c    0.142891 *  0.476152 *  0.814712 *    0.0000    1.000000    
    175 C     c    0.642891 *  0.476152 *  0.314712 *    0.0000    1.000000    
    176 C     c    0.642891 *  0.476152 *  0.814712 *    0.0000    1.000000    
    177 C     c    0.250001 *  0.499964 *  0.314712 *    0.0000    1.000000    
    178 C     c    0.250001 *  0.499964 *  0.814712 *    0.0000    1.000000    
    179 C     c    0.750001 *  0.499964 *  0.314712 *    0.0000    1.000000    
    180 C     c    0.750001 *  0.499964 *  0.814712 *    0.0000    1.000000    
    181 C     c    0.107110 *  0.690461 *  0.314712 *    0.0000    1.000000    
    182 C     c    0.107110 *  0.690461 *  0.814712 *    0.0000    1.000000    
    183 C     c    0.607110 *  0.690461 *  0.314712 *    0.0000    1.000000    
    184 C     c    0.607110 *  0.690461 *  0.814712 *    0.0000    1.000000    
    185 C     c    0.214298 *  0.714273 *  0.314712 *    0.0000    1.000000    
    186 C     c    0.214298 *  0.714273 *  0.814712 *    0.0000    1.000000    
    187 C     c    0.714298 *  0.714273 *  0.314712 *    0.0000    1.000000    
    188 C     c    0.714298 *  0.714273 *  0.814712 *    0.0000    1.000000    
    189 C     c    0.071407 *  0.904769 *  0.314712 *    0.0000    1.000000    
    190 C     c    0.071407 *  0.904769 *  0.814712 *    0.0000    1.000000    
    191 C     c    0.571407 *  0.904769 *  0.314712 *    0.0000    1.000000    
    192 C     c    0.571407 *  0.904769 *  0.814712 *    0.0000    1.000000    
    193 C     c    0.178594 *  0.928581 *  0.314712 *    0.0000    1.000000    
    194 C     c    0.178594 *  0.928581 *  0.814712 *    0.0000    1.000000    
    195 C     c    0.678594 *  0.928581 *  0.314712 *    0.0000    1.000000    
    196 C     c    0.678594 *  0.928581 *  0.814712 *    0.0000    1.000000    
    197 C     c    0.357112 *  0.190496 *  0.314712 *    0.0000    1.000000    
    198 C     c    0.357112 *  0.190496 *  0.814712 *    0.0000    1.000000    
    199 C     c    0.857112 *  0.190496 *  0.314712 *    0.0000    1.000000    
    200 C     c    0.857112 *  0.190496 *  0.814712 *    0.0000    1.000000    
    201 C     c    0.464299 *  0.214308 *  0.314712 *    0.0000    1.000000    
    202 C     c    0.464299 *  0.214308 *  0.814712 *    0.0000    1.000000    
    203 C     c    0.964299 *  0.214308 *  0.314712 *    0.0000    1.000000    
    204 C     c    0.964299 *  0.214308 *  0.814712 *    0.0000    1.000000    
    205 C     c    0.321408 *  0.404805 *  0.314712 *    0.0000    1.000000    
    206 C     c    0.321408 *  0.404805 *  0.814712 *    0.0000    1.000000    
    207 C     c    0.821408 *  0.404805 *  0.314712 *    0.0000    1.000000    
    208 C     c    0.821408 *  0.404805 *  0.814712 *    0.0000    1.000000    
    209 C     c    0.428596 *  0.428528 *  0.314712 *    0.0000    1.000000    
    210 C     c    0.428596 *  0.428528 *  0.814712 *    0.0000    1.000000    
    211 C     c    0.928596 *  0.428528 *  0.314712 *    0.0000    1.000000    
    212 C     c    0.928596 *  0.428528 *  0.814712 *    0.0000    1.000000    
    213 C     c    0.392892 *  0.642836 *  0.314712 *    0.0000    1.000000    
    214 C     c    0.392892 *  0.642836 *  0.814712 *    0.0000    1.000000    
    215 C     c    0.892892 *  0.642836 *  0.314712 *    0.0000    1.000000    
    216 C     c    0.892892 *  0.642836 *  0.814712 *    0.0000    1.000000    
    217 C     c    0.250001 *  0.833333 *  0.314712 *    0.0000    1.000000    
    218 C     c    0.250001 *  0.833333 *  0.814712 *    0.0000    1.000000    
    219 C     c    0.750001 *  0.833333 *  0.314712 *    0.0000    1.000000    
    220 C     c    0.750001 *  0.833333 *  0.814712 *    0.0000    1.000000    
    221 C     c    0.357112 *  0.857145 *  0.314712 *    0.0000    1.000000    
    222 C     c    0.357112 *  0.857145 *  0.814712 *    0.0000    1.000000    
    223 C     c    0.857112 *  0.857145 *  0.314712 *    0.0000    1.000000    
    224 C     c    0.857112 *  0.857145 *  0.814712 *    0.0000    1.000000    
--------------------------------------------------------------------------------



  Molecule list generated from bond lengths :

  Total number of molecules =     4

--------------------------------------------------------------------------------
Molecule No./:  Atoms
Periodicity  :  
--------------------------------------------------------------------------------
     1  2 xy : C    c     1 C    c     3 C    c     5 C    c     7 C    c     9
             : C    c    11 C    c    13 C    c    15 C    c    17 C    c    19
             : C    c    21 C    c    23 C    c    25 C    c    27 C    c    29
             : C    c    31 C    c    33 C    c    35 C    c    37 C    c    39
             : C    c    41 C    c    43 C    c    45 C    c    47 C    c    49
             : C    c    51 C    c    53 C    c    55 C    c    57 C    c    59
             : C    c    61 C    c    63 C    c    65 C    c    67 C    c    69
             : C    c    71 C    c    73 C    c    75 C    c    77 C    c    79
             : C    c    81 C    c    83 C    c    85 C    c    87 C    c    89
             : C    c    91 C    c    93 C    c    95 C    c    97 C    c    99
             : C    c   101 C    c   103 C    c   105 C    c   107 C    c   109
             : C    c   111
     2  2 xy : C    c     2 C    c     4 C    c     6 C    c     8 C    c    10
             : C    c    12 C    c    14 C    c    16 C    c    18 C    c    20
             : C    c    22 C    c    24 C    c    26 C    c    28 C    c    30
             : C    c    32 C    c    34 C    c    36 C    c    38 C    c    40
             : C    c    42 C    c    44 C    c    46 C    c    48 C    c    50
             : C    c    52 C    c    54 C    c    56 C    c    58 C    c    60
             : C    c    62 C    c    64 C    c    66 C    c    68 C    c    70
             : C    c    72 C    c    74 C    c    76 C    c    78 C    c    80
             : C    c    82 C    c    84 C    c    86 C    c    88 C    c    90
             : C    c    92 C    c    94 C    c    96 C    c    98 C    c   100
             : C    c   102 C    c   104 C    c   106 C    c   108 C    c   110
             : C    c   112
     3  2 xy : C    c   113 C    c   115 C    c   117 C    c   119 C    c   121
             : C    c   123 C    c   125 C    c   127 C    c   129 C    c   131
             : C    c   133 C    c   135 C    c   137 C    c   139 C    c   141
             : C    c   143 C    c   145 C    c   147 C    c   149 C    c   151
             : C    c   153 C    c   155 C    c   157 C    c   159 C    c   161
             : C    c   163 C    c   165 C    c   167 C    c   169 C    c   171
             : C    c   173 C    c   175 C    c   177 C    c   179 C    c   181
             : C    c   183 C    c   185 C    c   187 C    c   189 C    c   191
             : C    c   193 C    c   195 C    c   197 C    c   199 C    c   201
             : C    c   203 C    c   205 C    c   207 C    c   209 C    c   211
             : C    c   213 C    c   215 C    c   217 C    c   219 C    c   221
             : C    c   223
     4  2 xy : C    c   114 C    c   116 C    c   118 C    c   120 C    c   122
             : C    c   124 C    c   126 C    c   128 C    c   130 C    c   132
             : C    c   134 C    c   136 C    c   138 C    c   140 C    c   142
             : C    c   144 C    c   146 C    c   148 C    c   150 C    c   152
             : C    c   154 C    c   156 C    c   158 C    c   160 C    c   162
             : C    c   164 C    c   166 C    c   168 C    c   170 C    c   172
             : C    c   174 C    c   176 C    c   178 C    c   180 C    c   182
             : C    c   184 C    c   186 C    c   188 C    c   190 C    c   192
             : C    c   194 C    c   196 C    c   198 C    c   200 C    c   202
             : C    c   204 C    c   206 C    c   208 C    c   210 C    c   212
             : C    c   214 C    c   216 C    c   218 C    c   220 C    c   222
             : C    c   224
--------------------------------------------------------------------------------


********************************************************************************
*  General input information                                                   *
********************************************************************************

  Species output for all configurations : 

--------------------------------------------------------------------------------
  Species    Type    Atomic    Atomic    Charge       Radii (Angs)     Library
                     Number     Mass       (e)     Cova   Ionic  VDW   Symbol
--------------------------------------------------------------------------------
    C        Core        6      12.01     0.0000   0.770  0.000  1.530          
--------------------------------------------------------------------------------


  Lattice summation method               =    Ewald
  Accuracy factor for lattice sums       =    8.000


  Time limit = Infinity

  Maximum range for interatomic potentials =        12.000000 Angstroms

  Taper potentials to zero over   1.0000 Angstroms using polynomial

  Intramolecular potentials :

--------------------------------------------------------------------------------
Atom  Types   Potential         A         B         C         D     Cutoffs(Ang)
  1     2                                                            Min    Max 
--------------------------------------------------------------------------------
C    c C    c Morse          5.77      1.65     1.41     0.00       0.000  2.000
--------------------------------------------------------------------------------

  Intermolecular potentials :

--------------------------------------------------------------------------------
Atom  Types   Potential         A         B         C         D     Cutoffs(Ang)
  1     2                                                            Min    Max 
--------------------------------------------------------------------------------
C    c C    c Lennard 12  6 0.276E+05  18.2     0.00      0.00      0.000 12.000
--------------------------------------------------------------------------------

  Intramolecular Three-body potentials :

  Cosine Harmonic form:

--------------------------------------------------------------------------------
Atom    Atom    Atom           Force Constants            Theta     Cutoffs  
  1       2       3               (eV)                    (deg)  1-2  1-3  2-3
--------------------------------------------------------------------------------
C     c C     c C     c                  25.226000       120.000 0.00 0.00 0.00
                                                                 1.60 1.60 3.00
--------------------------------------------------------------------------------

  Intramolecular Four-body potentials :

  Standard form:

--------------------------------------------------------------------------------
         Atom Types             Force cst Sign Phase Phi0         Cutoffs
   1       2       3       4       (eV)                     1-2  2-3  3-4  4-1
--------------------------------------------------------------------------------
C     c C     c C     c C     c  0.4614     -   2     0.00  1.60 1.60 1.60 0.00
--------------------------------------------------------------------------------

********************************************************************************
*  Output for configuration   1                                                *
********************************************************************************


  Components of energy : 

--------------------------------------------------------------------------------
  Interatomic potentials     =       -1944.15326573 eV
  Three-body potentials      =           0.00101082 eV
  Four-body potentials       =           0.00000000 eV
  Out of plane potentials    =           0.00000000 eV
  Monopole - monopole (real) =           0.00000000 eV
  Monopole - monopole (recip)=           0.00000000 eV
  Monopole - monopole (total)=           0.00000000 eV
--------------------------------------------------------------------------------
  Total lattice energy       =       -1944.15225491 eV
--------------------------------------------------------------------------------
  Total lattice energy       =         -187580.9735 kJ/(mole unit cells)
--------------------------------------------------------------------------------

  XYZ File open for Movie as graphiteShort.xyz                       


  Equations of motion will be integrated using the leapfrog Verlet algorithm.

********************************************************************************
*  Molecular Dynamics                                                          *
********************************************************************************

  Canonical ensemble (NVT) to be used

  Friction for temperature bath =           0.050000

  No. of mobile ions        =                224

  No. of degrees of freedom =                669

  Time step                 =           0.001000 ps
  Equilibration time        =           0.000000 ps
  Production time           =           0.250000 ps
  Scaling time              =           0.000000 ps
  Scaling frequency         =           0.001000 ps
  Sampling frequency        =           0.010000 ps
  Write frequency           =           0.010000 ps
  Force start time          =           0.000000 ps


  Molecular dynamics production :

  ** Time :            0.01000 ps :
     Properties:                   Instantaneous       Averaged
       Kinetic energy    (eV) =       8.791118          8.791118
       Potential energy  (eV) =   -1836.956825      -1836.956825
       Total energy      (eV) =   -1828.165707      -1828.165707
       Temperature       (K)  =     304.982303        304.982303
       Pressure         (GPa) =      -1.778749         -1.778749
  ** Time :            0.02000 ps :
     Properties:                   Instantaneous       Averaged
       Kinetic energy    (eV) =       9.892020          9.341569
       Potential energy  (eV) =   -1834.371731      -1835.664278
       Total energy      (eV) =   -1824.479711      -1826.322709
       Temperature       (K)  =     343.174898        324.078600
       Pressure         (GPa) =      -1.702912         -1.740830
  ** Time :            0.03000 ps :
     Properties:                   Instantaneous       Averaged
       Kinetic energy    (eV) =       6.927982          8.537040
       Potential energy  (eV) =   -1867.090211      -1846.139589
       Total energy      (eV) =   -1860.162229      -1837.602549
       Temperature       (K)  =     240.346220        296.167807
       Pressure         (GPa) =      -2.094176         -1.858612
  ** Time :            0.04000 ps :
     Properties:                   Instantaneous       Averaged
       Kinetic energy    (eV) =       8.475301          8.521605
       Potential energy  (eV) =   -1867.384128      -1851.450724
       Total energy      (eV) =   -1858.908827      -1842.929119
       Temperature       (K)  =     294.025976        295.632349
       Pressure         (GPa) =      -1.991123         -1.891740
  ** Time :            0.05000 ps :
     Properties:                   Instantaneous       Averaged
       Kinetic energy    (eV) =       8.701099          8.557504
       Potential energy  (eV) =   -1876.175181      -1856.395615
       Total energy      (eV) =   -1867.474083      -1847.838111
       Temperature       (K)  =     301.859351        296.877749
       Pressure         (GPa) =      -1.951023         -1.903596
  ** Time :            0.06000 ps :
     Properties:                   Instantaneous       Averaged
       Kinetic energy    (eV) =       9.701730          8.748208
       Potential energy  (eV) =   -1881.444573      -1860.570442
       Total energy      (eV) =   -1871.742843      -1851.822233
       Temperature       (K)  =     336.573360        303.493684
       Pressure         (GPa) =      -1.880082         -1.899677
  ** Time :            0.07000 ps :
     Properties:                   Instantaneous       Averaged
       Kinetic energy    (eV) =       9.552410          8.863094
       Potential energy  (eV) =   -1894.258808      -1865.383065
       Total energy      (eV) =   -1884.706398      -1856.519971
       Temperature       (K)  =     331.393129        307.479319
       Pressure         (GPa) =      -1.996623         -1.913527
  ** Time :            0.08000 ps :
     Properties:                   Instantaneous       Averaged
       Kinetic energy    (eV) =       8.282705          8.790546
       Potential energy  (eV) =   -1911.402526      -1871.135498
       Total energy      (eV) =   -1903.119821      -1862.344952
       Temperature       (K)  =     287.344406        304.962455
       Pressure         (GPa) =      -2.081987         -1.934584
  ** Time :            0.09000 ps :
     Properties:                   Instantaneous       Averaged
       Kinetic energy    (eV) =       8.401717          8.747342
       Potential energy  (eV) =   -1917.341804      -1876.269532
       Total energy      (eV) =   -1908.940087      -1867.522190
       Temperature       (K)  =     291.473188        303.463648
       Pressure         (GPa) =      -2.075715         -1.950265
  ** Time :            0.10000 ps :
     Properties:                   Instantaneous       Averaged
       Kinetic energy    (eV) =      10.159931          8.888601
       Potential energy  (eV) =   -1928.140072      -1881.456586
       Total energy      (eV) =   -1917.980141      -1872.567985
       Temperature       (K)  =     352.469293        308.364212
       Pressure         (GPa) =      -1.995156         -1.954755
  ** Time :            0.11000 ps :
     Properties:                   Instantaneous       Averaged
       Kinetic energy    (eV) =       9.286150          8.924742
       Potential energy  (eV) =   -1926.063469      -1885.511757
       Total energy      (eV) =   -1916.777319      -1876.587015
       Temperature       (K)  =     322.156028        309.618014
       Pressure         (GPa) =      -2.080061         -1.966146
  ** Time :            0.12000 ps :
     Properties:                   Instantaneous       Averaged
       Kinetic energy    (eV) =       8.628795          8.900080
       Potential energy  (eV) =   -1920.308650      -1888.411498
       Total energy      (eV) =   -1911.679855      -1879.511418
       Temperature       (K)  =     299.351002        308.762429
       Pressure         (GPa) =      -2.136423         -1.980336
  ** Time :            0.13000 ps :
     Properties:                   Instantaneous       Averaged
       Kinetic energy    (eV) =       9.455324          8.942791
       Potential energy  (eV) =   -1916.424217      -1890.566323
       Total energy      (eV) =   -1906.968892      -1881.623532
       Temperature       (K)  =     328.025025        310.244167
       Pressure         (GPa) =      -2.135249         -1.992252
  ** Time :            0.14000 ps :
     Properties:                   Instantaneous       Averaged
       Kinetic energy    (eV) =       7.586419          8.845907
       Potential energy  (eV) =   -1920.266574      -1892.687769
       Total energy      (eV) =   -1912.680155      -1883.841862
       Temperature       (K)  =     263.188769        306.883068
       Pressure         (GPa) =      -2.221274         -2.008611
  ** Time :            0.15000 ps :
     Properties:                   Instantaneous       Averaged
       Kinetic energy    (eV) =       9.076043          8.861250
       Potential energy  (eV) =   -1932.930632      -1895.370627
       Total energy      (eV) =   -1923.854589      -1886.509377
       Temperature       (K)  =     314.866957        307.415327
       Pressure         (GPa) =      -2.084866         -2.013694
  ** Time :            0.16000 ps :
     Properties:                   Instantaneous       Averaged
       Kinetic energy    (eV) =      10.397034          8.957236
       Potential energy  (eV) =   -1926.235402      -1897.299675
       Total energy      (eV) =   -1915.838368      -1888.342439
       Temperature       (K)  =     360.694890        310.745300
       Pressure         (GPa) =      -2.084693         -2.018132
  ** Time :            0.17000 ps :
     Properties:                   Instantaneous       Averaged
       Kinetic energy    (eV) =       9.155774          8.968915
       Potential energy  (eV) =   -1924.033019      -1898.872225
       Total energy      (eV) =   -1914.877245      -1889.903310
       Temperature       (K)  =     317.633007        311.150459
       Pressure         (GPa) =      -2.163265         -2.026669
  ** Time :            0.18000 ps :
     Properties:                   Instantaneous       Averaged
       Kinetic energy    (eV) =       9.467395          8.996608
       Potential energy  (eV) =   -1934.090915      -1900.828819
       Total energy      (eV) =   -1924.623520      -1891.832211
       Temperature       (K)  =     328.443778        312.111199
       Pressure         (GPa) =      -2.125104         -2.032138
  ** Time :            0.19000 ps :
     Properties:                   Instantaneous       Averaged
       Kinetic energy    (eV) =       8.436418          8.967125
       Potential energy  (eV) =   -1931.523452      -1902.444326
       Total energy      (eV) =   -1923.087033      -1893.477201
       Temperature       (K)  =     292.677042        311.088348
       Pressure         (GPa) =      -2.128377         -2.037203
  ** Time :            0.20000 ps :
     Properties:                   Instantaneous       Averaged
       Kinetic energy    (eV) =       9.035763          8.970556
       Potential energy  (eV) =   -1929.978474      -1903.821033
       Total energy      (eV) =   -1920.942710      -1894.850477
       Temperature       (K)  =     313.469571        311.207410
       Pressure         (GPa) =      -2.140370         -2.042361
  ** Time :            0.21000 ps :
     Properties:                   Instantaneous       Averaged
       Kinetic energy    (eV) =       9.090146          8.976251
       Potential energy  (eV) =   -1936.019065      -1905.354273
       Total energy      (eV) =   -1926.928918      -1896.378022
       Temperature       (K)  =     315.356231        311.404973
       Pressure         (GPa) =      -2.139927         -2.047007
  ** Time :            0.22000 ps :
     Properties:                   Instantaneous       Averaged
       Kinetic energy    (eV) =       8.807481          8.968580
       Potential energy  (eV) =   -1921.595737      -1906.092521
       Total energy      (eV) =   -1912.788256      -1897.123941
       Temperature       (K)  =     305.549975        311.138836
       Pressure         (GPa) =      -2.182914         -2.053185
  ** Time :            0.23000 ps :
     Properties:                   Instantaneous       Averaged
       Kinetic energy    (eV) =       9.001439          8.970008
       Potential energy  (eV) =   -1934.224156      -1907.315636
       Total energy      (eV) =   -1925.222718      -1898.345627
       Temperature       (K)  =     312.278776        311.188399
       Pressure         (GPa) =      -2.114886         -2.055868
  ** Time :            0.24000 ps :
     Properties:                   Instantaneous       Averaged
       Kinetic energy    (eV) =       8.229477          8.939153
       Potential energy  (eV) =   -1933.591783      -1908.410475
       Total energy      (eV) =   -1925.362307      -1899.471322
       Temperature       (K)  =     285.497801        310.117957
       Pressure         (GPa) =      -2.170522         -2.060645
  ** Time :            0.25000 ps :
     Properties:                   Instantaneous       Averaged
       Kinetic energy    (eV) =       8.080825          8.904820
       Potential energy  (eV) =   -1932.410251      -1909.370466
       Total energy      (eV) =   -1924.329427      -1900.465646
       Temperature       (K)  =     280.340744        308.926869
       Pressure         (GPa) =      -2.139512         -2.063800

  Peak dynamic memory used =       0.98 MB 


  Timing analysis for GULP :

--------------------------------------------------------------------------------
  Task / Subroutine                                          Time (Seconds)
--------------------------------------------------------------------------------
  Calculation of real space energy and derivatives               23.4055
  Calculation of three-body energy and derivatives                0.2920
  Calculation of four-body energy and derivatives                 0.7840
--------------------------------------------------------------------------------
  Total CPU time                                                 24.8776
--------------------------------------------------------------------------------


  Dump file written as graphiteShort.res                                       


  Job Finished at 20:10.09 27th November   2009                               

